# vtk DataFile Version 2.0
track0
ASCII
DATASET POLYDATA
POINTS 15780 float
-1.001 -0.05 0.0011
-1.0008 -0.05 0.0011
-1.0006 -0.05 0.0011
-1.0004 -0.05 0.0011
-1.0002 -0.05 0.0011
-1 -0.05 0.0011
-0.9875 -0.05 0.0011
-0.975 -0.05 0.0011
-0.9625 -0.05 0.0011
-0.95 -0.05 0.0011
-0.9375 -0.05 0.00109999
-0.925 -0.05 0.00109999
-0.9125 -0.05 0.00109999
-0.9 -0.05 0.00109999
-0.8875 -0.05 0.00109999
-0.875 -0.05 0.00109999
-0.8625 -0.05 0.00109999
-0.85 -0.05 0.00109999
-0.8375 -0.05 0.00109998
-0.825 -0.0500001 0.00109998
-0.8125 -0.0500001 0.00109998
-0.8 -0.0500001 0.00109998
-0.7875 -0.0500001 0.00109998
-0.775 -0.0500001 0.00109998
-0.7625 -0.0500001 0.00109998
-0.75 -0.0500001 0.00109998
-0.7375 -0.0500001 0.00109997
-0.725 -0.0500001 0.00109997
-0.7125 -0.0500001 0.00109997
-0.7 -0.0500001 0.00109997
-0.6875 -0.0500001 0.00109997
-0.675 -0.0500001 0.00109997
-0.6625 -0.0500001 0.00109997
-0.65 -0.0500001 0.00109996
-0.6375 -0.0500001 0.00109996
-0.625 -0.0500001 0.00109996
-0.6125 -0.0500001 0.00109996
-0.6 -0.0500001 0.00109996
-0.5875 -0.0500001 0.00109996
-0.575 -0.0500001 0.00109996
-0.5625 -0.0500001 0.00109996
-0.55 -0.0500001 0.00109995
-0.5375 -0.0500001 0.00109995
-0.525 -0.0500001 0.00109995
-0.5125 -0.0500001 0.00109995
-0.5 -0.0500001 0.00109995
-0.4875 -0.0500001 0.00109995
-0.475 -0.0500001 0.00109995
-0.4625 -0.0500001 0.00109994
-0.45 -0.0500002 0.00109994
-0.4375 -0.0500002 0.00109994
-0.425 -0.0500002 0.00109994
-0.4125 -0.0500002 0.00109994
-0.4 -0.0500002 0.00109994
-0.3875 -0.0500002 0.00109994
-0.375 -0.0500002 0.00109994
-0.3625 -0.0500002 0.00109993
-0.35 -0.0500002 0.00109993
-0.3375 -0.0500002 0.00109993
-0.325 -0.0500002 0.00109993
-0.3125 -0.0500002 0.00109993
-0.3 -0.0500002 0.00109993
-0.2875 -0.0500002 0.00109993
-0.275 -0.0500002 0.00109993
-0.2625 -0.0500002 0.00109992
-0.25 -0.0500002 0.00109992
-0.2375 -0.0500002 0.00109992
-0.225 -0.0500002 0.00109992
-0.2125 -0.0500002 0.00109992
-0.2 -0.0500002 0.00109992
-0.1875 -0.0500002 0.00109992
-0.175 -0.0500002 0.00109992
-0.1625 -0.0500002 0.00109991
-0.15 -0.0500002 0.00109991
-0.1375 -0.0500002 0.00109991
-0.125 -0.0500002 0.00109991
-0.1125 -0.0500002 0.00109991
-0.1 -0.0500002 0.00109991
-0.0875 -0.0500002 0.00109991
-0.075 -0.0500002 0.00109991
-0.0625 -0.0500002 0.00109991
-0.05 -0.0500003 0.00109991
-0.0375 -0.0500003 0.0010999
-0.025 -0.0500003 0.0010999
-0.0125 -0.0500003 0.0010999
2.10607e-13 -0.0500003 0.0010999
0.0125 -0.0500003 0.0010999
0.025 -0.0500003 0.0010999
0.0375 -0.0500003 0.0010999
0.05 -0.0500003 0.0010999
0.0625 -0.0500003 0.0010999
0.075 -0.0500003 0.0010999
0.0875 -0.0500003 0.0010999
0.1 -0.0500003 0.00109989
0.1125 -0.0500003 0.00109989
0.125 -0.0500003 0.00109989
0.1375 -0.0500003 0.00109989
0.15 -0.0500003 0.00109989
0.1625 -0.0500003 0.00109989
0.175 -0.0500003 0.00109989
0.1875 -0.0500003 0.00109989
0.2 -0.0500003 0.00109989
0.2125 -0.0500003 0.00109989
0.225 -0.0500003 0.00109989
0.2375 -0.0500003 0.00109989
0.25 -0.0500003 0.00109989
0.2625 -0.0500003 0.00109988
0.275 -0.0500003 0.00109988
0.2875 -0.0500003 0.00109988
0.3 -0.0500003 0.00109988
0.3125 -0.0500003 0.00109988
0.325 -0.0500003 0.00109988
0.3375 -0.0500003 0.00109988
0.35 -0.0500003 0.00109988
0.3625 -0.0500003 0.00109988
0.375 -0.0500003 0.00109988
0.3875 -0.0500003 0.00109988
0.4 -0.0500004 0.00109988
0.4125 -0.0500004 0.00109988
0.425 -0.0500004 0.00109988
0.4375 -0.0500004 0.00109988
0.45 -0.0500004 0.00109988
0.4625 -0.0500004 0.00109988
0.475 -0.0500004 0.00109988
0.4875 -0.0500004 0.00109988
0.5 -0.0500004 0.00109988
0.5125 -0.0500004 0.00109988
0.525 -0.0500004 0.00109988
0.5375 -0.0500004 0.00109988
0.55 -0.0500004 0.00109988
0.5625 -0.0500004 0.00109988
0.575 -0.0500004 0.00109987
0.5875 -0.0500004 0.00109987
0.6 -0.0500004 0.00109987
0.6125 -0.0500004 0.00109987
0.625 -0.0500004 0.00109987
0.6375 -0.0500004 0.00109987
0.65 -0.0500004 0.00109987
0.6625 -0.0500004 0.00109987
0.675 -0.0500004 0.00109987
0.6875 -0.0500004 0.00109987
0.7 -0.0500004 0.00109987
0.7125 -0.0500004 0.00109987
0.725 -0.0500004 0.00109987
0.7375 -0.0500004 0.00109987
0.75 -0.0500004 0.00109987
0.7625 -0.0500004 0.00109987
0.775 -0.0500004 0.00109987
0.7875 -0.0500004 0.00109987
0.8 -0.0500004 0.00109987
0.8125 -0.0500004 0.00109987
0.825 -0.0500004 0.00109987
0.8375 -0.0500004 0.00109987
0.85 -0.0500004 0.00109987
0.8625 -0.0500004 0.00109987
0.875 -0.0500004 0.00109987
0.8875 -0.0500004 0.00109987
0.9 -0.0500004 0.00109987
0.9125 -0.0500005 0.00109988
0.925 -0.0500005 0.00109988
0.9375 -0.0500005 0.00109988
0.95 -0.0500005 0.00109988
0.9625 -0.0500005 0.00109988
0.975 -0.0500005 0.00109988
0.9875 -0.0500005 0.00109988
1 -0.0500005 0.00109988
1.0125 -0.0500005 0.00109988
1.025 -0.0500005 0.00109988
1.0375 -0.0500005 0.00109988
1.05 -0.0500005 0.00109988
1.0625 -0.0500005 0.00109988
1.075 -0.0500005 0.00109988
1.0875 -0.0500005 0.00109988
1.1 -0.0500005 0.00109988
1.1125 -0.0500005 0.00109988
1.125 -0.0500005 0.00109988
1.1375 -0.0500005 0.00109988
1.15 -0.0500005 0.00109988
1.1625 -0.0500005 0.00109988
1.175 -0.0500005 0.00109988
1.1875 -0.0500005 0.00109988
1.2 -0.0500005 0.00109988
1.2125 -0.0500005 0.00109988
1.225 -0.0500005 0.00109988
1.2375 -0.0500005 0.00109989
1.25 -0.0500005 0.00109989
1.2625 -0.0500005 0.00109989
1.275 -0.0500005 0.00109989
1.2875 -0.0500005 0.00109989
1.3 -0.0500005 0.00109989
1.3125 -0.0500005 0.00109989
1.325 -0.0500005 0.00109989
1.3375 -0.0500005 0.00109989
1.35 -0.0500005 0.00109989
1.3625 -0.0500005 0.00109989
1.375 -0.0500005 0.00109989
1.3875 -0.0500005 0.00109989
1.4 -0.0500005 0.00109989
1.4125 -0.0500005 0.00109989
1.425 -0.0500005 0.00109989
1.4375 -0.0500005 0.0010999
1.45 -0.0500005 0.0010999
1.4625 -0.0500005 0.0010999
1.475 -0.0500005 0.0010999
1.4875 -0.0500005 0.0010999
1.5 -0.0500006 0.0010999
1.5125 -0.0500006 0.0010999
1.525 -0.0500006 0.0010999
1.5375 -0.0500006 0.0010999
1.55 -0.0500006 0.0010999
1.5625 -0.0500006 0.0010999
1.575 -0.0500006 0.0010999
1.5875 -0.0500006 0.0010999
1.6 -0.0500006 0.0010999
1.6125 -0.0500006 0.00109991
1.625 -0.0500006 0.00109991
1.6375 -0.0500006 0.00109991
1.65 -0.0500006 0.00109991
1.6625 -0.0500006 0.00109991
1.675 -0.0500006 0.00109991
1.6875 -0.0500006 0.00109991
1.7 -0.0500006 0.00109991
1.7125 -0.0500006 0.00109991
1.725 -0.0500006 0.00109991
1.7375 -0.0500006 0.00109991
1.75 -0.0500006 0.00109991
1.7625 -0.0500006 0.00109992
1.775 -0.0500006 0.00109992
1.7875 -0.0500006 0.00109992
1.8 -0.0500006 0.00109992
1.8125 -0.0500006 0.00109992
1.825 -0.0500006 0.00109992
1.8375 -0.0500006 0.00109992
1.85 -0.0500006 0.00109992
1.8625 -0.0500006 0.00109992
1.875 -0.0500006 0.00109992
1.8875 -0.0500006 0.00109992
1.9 -0.0500006 0.00109992
1.9125 -0.0500006 0.00109993
1.925 -0.0500006 0.00109993
1.9375 -0.0500006 0.00109993
1.95 -0.0500006 0.00109993
1.9625 -0.0500006 0.00109993
1.975 -0.0500006 0.00109993
1.9875 -0.0500006 0.00109993
2 -0.0500006 0.00109993
2.0125 -0.0500006 0.00109993
2.025 -0.0500006 0.00109993
2.0375 -0.0500006 0.00109993
2.05 -0.0500006 0.00109993
2.0625 -0.0500006 0.00109994
2.075 -0.0500006 0.00109994
2.0875 -0.0500006 0.00109994
2.1 -0.0500006 0.00109994
2.1125 -0.0500006 0.00109994
2.125 -0.0500006 0.00109994
2.1375 -0.0500006 0.00109994
2.15 -0.0500006 0.00109994
2.1625 -0.0500006 0.00109994
2.175 -0.0500007 0.00109994
2.1875 -0.0500007 0.00109994
2.2 -0.0500007 0.00109994
2.2125 -0.0500007 0.00109994
2.225 -0.0500007 0.00109995
2.2375 -0.0500007 0.00109995
2.25 -0.0500007 0.00109995
2.2625 -0.0500007 0.00109995
2.275 -0.0500007 0.00109995
2.2875 -0.0500007 0.00109995
2.3 -0.0500007 0.00109995
2.3125 -0.0500007 0.00109995
2.325 -0.0500007 0.00109995
2.3375 -0.0500007 0.00109995
2.35 -0.0500007 0.00109995
2.3625 -0.0500007 0.00109995
2.375 -0.0500007 0.00109995
2.3875 -0.0500007 0.00109996
2.4 -0.0500007 0.00109996
2.4125 -0.0500007 0.00109996
2.425 -0.0500007 0.00109996
2.4375 -0.0500007 0.00109996
2.45 -0.0500007 0.00109996
2.4625 -0.0500007 0.00109996
2.475 -0.0500007 0.00109996
2.4875 -0.0500007 0.00109996
2.5 -0.0500007 0.00109996
2.5125 -0.0500007 0.00109996
2.525 -0.0500007 0.00109996
2.5375 -0.0500007 0.00109996
2.55 -0.0500007 0.00109996
2.5625 -0.0500007 0.00109997
2.575 -0.0500007 0.00109997
2.5875 -0.0500007 0.00109997
2.6 -0.0500007 0.00109997
2.6125 -0.0500007 0.00109997
2.625 -0.0500007 0.00109997
2.6375 -0.0500007 0.00109997
2.65 -0.0500007 0.00109997
2.6625 -0.0500007 0.00109997
2.675 -0.0500007 0.00109997
2.6875 -0.0500007 0.00109997
2.7 -0.0500007 0.00109997
2.7125 -0.0500007 0.00109997
2.725 -0.0500007 0.00109997
2.7375 -0.0500007 0.00109997
2.75 -0.0500007 0.00109997
2.7625 -0.0500007 0.00109998
2.775 -0.0500007 0.00109998
2.7875 -0.0500007 0.00109998
2.8 -0.0500007 0.00109998
2.8125 -0.0500007 0.00109998
2.825 -0.0500007 0.00109998
2.8375 -0.0500007 0.00109998
2.85 -0.0500007 0.00109998
2.8625 -0.0500008 0.00109998
2.875 -0.0500008 0.00109998
2.8875 -0.0500008 0.00109998
2.9 -0.0500008 0.00109998
2.9125 -0.0500008 0.00109998
2.925 -0.0500008 0.00109998
2.9375 -0.0500008 0.00109998
2.95 -0.0500008 0.00109998
2.9625 -0.0500008 0.00109998
2.975 -0.0500008 0.00109998
2.9875 -0.0500008 0.00109998
3 -0.0500008 0.00109998
3.0125 -0.0500008 0.00109999
3.025 -0.0500008 0.00109999
3.0375 -0.0500008 0.00109999
3.05 -0.0500008 0.00109999
3.0625 -0.0500008 0.00109999
3.075 -0.0500008 0.00109999
3.0875 -0.0500008 0.00109999
3.1 -0.0500008 0.00109999
3.1125 -0.0500008 0.00109999
3.125 -0.0500008 0.00109999
3.1375 -0.0500008 0.00109999
3.15 -0.0500008 0.00109999
3.1625 -0.0500008 0.00109999
3.175 -0.0500008 0.00109999
3.1875 -0.0500008 0.00109999
3.2 -0.0500008 0.00109999
3.2125 -0.0500008 0.00109999
3.225 -0.0500008 0.00109999
3.2375 -0.0500008 0.00109999
3.25 -0.0500008 0.00109999
3.2625 -0.0500008 0.00109999
3.275 -0.0500008 0.00109999
3.2875 -0.0500008 0.00109999
3.3 -0.0500008 0.00109999
3.3125 -0.0500008 0.00109999
3.325 -0.0500008 0.00109999
3.3375 -0.0500008 0.00109999
3.35 -0.0500008 0.0011
3.3625 -0.0500008 0.0011
[...]
POINT_DATA 15780
 FIELD attributes 1
U 3 15780 float
30.0002 	-7.01794e-06 	-6.30587e-06 30.0002 	-6.84346e-06 	-6.51454e-06 30.0002 	-6.66897e-06 	-6.72321e-06 30.0002 	-6.49448e-06 	-6.93187e-06 30.0002 	-6.32e-06 	-7.14054e-06 30.0002 	-6.14551e-06 	-7.34921e-06 30.0004 	-1.23853e-05 	-1.26099e-06 30.0004 	-1.23853e-05 	-1.26099e-06 30.0004 	-1.23853e-05 	-1.26099e-06 30.0004 	-1.23853e-05 	-1.26099e-06 30.0002 	-7.0618e-08 	-6.84366e-06 30.0005 	-1.07092e-05 	-1.68704e-06 30.0005 	-1.07092e-05 	-1.68704e-06 30.0005 	-1.07092e-05 	-1.68704e-06 30.0005 	-1.07092e-05 	-1.68704e-06 30.0002 	-7.23151e-08 	-6.59607e-06 30.0005 	-9.95868e-06 	-2.08022e-06 30.0005 	-9.95867e-06 	-2.08022e-06 30.0005 	-9.95866e-06 	-2.08022e-06 30.0005 	-9.95865e-06 	-2.08022e-06 30.0003 	-4.59319e-06 	-6.24725e-06 30.0005 	-9.69193e-06 	-2.34895e-06 30.0005 	-9.69192e-06 	-2.34895e-06 30.0005 	-9.69192e-06 	-2.34895e-06 30.0005 	-9.69191e-06 	-2.34894e-06 30.0003 	-7.59407e-08 	-6.57615e-06 30.0005 	-9.52378e-06 	-2.49782e-06 30.0005 	-9.52378e-06 	-2.49782e-06 30.0005 	-9.52377e-06 	-2.49782e-06 30.0005 	-9.52376e-06 	-2.49781e-06 30.0003 	-7.77135e-08 	-6.52626e-06 30.0005 	-9.38744e-06 	-2.55606e-06 30.0005 	-9.38743e-06 	-2.55606e-06 30.0005 	-9.38742e-06 	-2.55606e-06 30.0005 	-9.38741e-06 	-2.55606e-06 30.0003 	-4.26705e-06 	-6.08528e-06 30.0005 	-9.28003e-06 	-2.55829e-06 30.0005 	-9.28002e-06 	-2.55829e-06 30.0005 	-9.28002e-06 	-2.55829e-06 30.0005 	-9.28001e-06 	-2.55829e-06 30.0003 	-4.19946e-06 	-5.97789e-06 30.0006 	-9.18787e-06 	-2.53043e-06 30.0006 	-9.18786e-06 	-2.53043e-06 30.0006 	-9.18786e-06 	-2.53042e-06 30.0006 	-9.18785e-06 	-2.53042e-06 30.0003 	-8.30522e-08 	-6.20127e-06 30.0006 	-9.09782e-06 	-2.48118e-06 30.0006 	-9.09781e-06 	-2.48118e-06 30.0006 	-9.09781e-06 	-2.48117e-06 30.0006 	-9.0978e-06 	-2.48117e-06 30.0003 	-8.48122e-08 	-6.05424e-06 30.0006 	-9.00538e-06 	-2.41361e-06 30.0006 	-9.00538e-06 	-2.41361e-06 30.0006 	-9.00537e-06 	-2.4136e-06 30.0006 	-9.00536e-06 	-2.4136e-06 30.0003 	-8.65716e-08 	-5.88782e-06 30.0006 	-8.90925e-06 	-2.32972e-06 30.0006 	-8.90924e-06 	-2.32972e-06 30.0006 	-8.90924e-06 	-2.32972e-06 30.0006 	-8.90923e-06 	-2.32972e-06 30.0003 	-3.93809e-06 	-5.36347e-06 30.0006 	-8.80922e-06 	-2.23274e-06 30.0006 	-8.80921e-06 	-2.23274e-06 30.0006 	-8.80921e-06 	-2.23274e-06 30.0006 	-8.8092e-06 	-2.23274e-06 30.0003 	-3.86431e-06 	-5.16476e-06 30.0006 	-8.70496e-06 	-2.12413e-06 30.0006 	-8.70496e-06 	-2.12413e-06 30.0006 	-8.70495e-06 	-2.12413e-06 30.0006 	-8.70494e-06 	-2.12413e-06 30.0003 	-9.18499e-08 	-5.28458e-06 30.0006 	-8.59676e-06 	-2.00507e-06 30.0006 	-8.59676e-06 	-2.00507e-06 30.0006 	-8.59675e-06 	-2.00507e-06 30.0006 	-8.59674e-06 	-2.00507e-06 30.0003 	-3.7047e-06 	-4.7194e-06 30.0007 	-8.4854e-06 	-1.87668e-06 30.0007 	-8.48539e-06 	-1.87668e-06 30.0007 	-8.48539e-06 	-1.87667e-06 30.0007 	-8.48538e-06 	-1.87667e-06 30.0003 	-3.61959e-06 	-4.47431e-06 30.0007 	-8.37206e-06 	-1.73883e-06 30.0007 	-8.37205e-06 	-1.73883e-06 30.0007 	-8.37204e-06 	-1.73883e-06 30.0007 	-8.37204e-06 	-1.73883e-06 30.0004 	-9.70616e-08 	-4.54319e-06 30.0007 	-8.26043e-06 	-1.59802e-06 30.0007 	-8.26043e-06 	-1.59802e-06 30.0007 	-8.26042e-06 	-1.59802e-06 30.0007 	-8.26042e-06 	-1.59802e-06 30.0004 	-9.87809e-08 	-4.27124e-06 30.0007 	-8.14843e-06 	-1.46322e-06 30.0007 	-8.14843e-06 	-1.46322e-06 30.0007 	-8.14842e-06 	-1.46322e-06 30.0007 	-8.14842e-06 	-1.46322e-06 30.0004 	-1.00506e-07 	-3.98926e-06 30.0007 	-8.02036e-06 	-1.32071e-06 30.0007 	-8.02035e-06 	-1.32071e-06 30.0007 	-8.02035e-06 	-1.32071e-06 30.0007 	-8.02034e-06 	-1.32071e-06 30.0004 	-3.25118e-06 	-3.37795e-06 30.0007 	-7.88156e-06 	-1.16799e-06 30.0007 	-7.88155e-06 	-1.16799e-06 30.0007 	-7.88155e-06 	-1.16799e-06 30.0007 	-7.88155e-06 	-1.16799e-06 30.0004 	-1.03921e-07 	-3.40288e-06 30.0007 	-7.74562e-06 	-1.00786e-06 30.0007 	-7.74561e-06 	-1.00786e-06 30.0007 	-7.74561e-06 	-1.00786e-06 30.0007 	-7.74561e-06 	-1.00786e-06 30.0004 	-1.05619e-07 	-3.10327e-06 30.0007 	-7.61148e-06 	-8.41846e-07 30.0007 	-7.61148e-06 	-8.41846e-07 30.0007 	-7.61147e-06 	-8.41846e-07 30.0007 	-7.61147e-06 	-8.41846e-07 30.0004 	-2.93199e-06 	-2.48789e-06 30.0007 	-7.4757e-06 	-6.70192e-07 30.0007 	-7.4757e-06 	-6.70192e-07 30.0007 	-7.4757e-06 	-6.70191e-07 30.0007 	-7.47569e-06 	-6.70191e-07 30.0004 	-2.8255e-06 	-2.18313e-06 30.0007 	-7.34354e-06 	-4.97037e-07 30.0007 	-7.34353e-06 	-4.97037e-07 30.0007 	-7.34353e-06 	-4.97036e-07 30.0007 	-7.34353e-06 	-4.97036e-07 30.0004 	-1.10679e-07 	-2.1711e-06 30.0007 	-7.21573e-06 	-3.17308e-07 30.0007 	-7.21572e-06 	-3.17308e-07 30.0007 	-7.21572e-06 	-3.17308e-07 30.0007 	-7.21572e-06 	-3.17308e-07 30.0004 	-1.12347e-07 	-1.85336e-06 30.0007 	-7.09898e-06 	-1.38204e-07 30.0007 	-7.09898e-06 	-1.38204e-07 30.0007 	-7.09898e-06 	-1.38204e-07 30.0007 	-7.09898e-06 	-1.38204e-07 30.0004 	-1.14003e-07 	-1.54902e-06 30.0007 	-6.98565e-06 	4.08642e-08 30.0007 	-6.98565e-06 	4.08642e-08 30.0007 	-6.98565e-06 	4.08642e-08 30.0007 	-6.98565e-06 	4.08642e-08 30.0004 	-2.43902e-06 	-9.58514e-07 30.0007 	-6.87205e-06 	2.1468e-07 30.0007 	-6.87205e-06 	2.1468e-07 30.0007 	-6.87205e-06 	2.1468e-07 30.0007 	-6.87205e-06 	2.1468e-07 30.0004 	-2.34741e-06 	-6.82312e-07 30.0007 	-6.75384e-06 	3.90729e-07 30.0007 	-6.75384e-06 	3.90729e-07 30.0007 	-6.75384e-06 	3.90729e-07 30.0007 	-6.75384e-06 	3.90729e-07 30.0004 	-1.18931e-07 	-7.09771e-07 30.0007 	-6.6433e-06 	5.64381e-07 30.0007 	-6.6433e-06 	5.64381e-07 30.0007 	-6.6433e-06 	5.64381e-07 30.0007 	-6.64331e-06 	5.64381e-07 30.0004 	-2.16703e-06 	-1.45454e-07 30.0007 	-6.53632e-06 	7.27409e-07 30.0007 	-6.53632e-06 	7.27409e-07 30.0007 	-6.53632e-06 	7.27409e-07 30.0007 	-6.53633e-06 	7.27409e-07 30.0004 	-2.08136e-06 	1.13823e-07 30.0007 	-6.43101e-06 	8.78849e-07 30.0007 	-6.43101e-06 	8.78849e-07 30.0007 	-6.43101e-06 	8.7885e-07 30.0007 	-6.43102e-06 	8.7885e-07 30.0004 	-1.23821e-07 	7.05756e-08 30.0007 	-6.32338e-06 	1.0178e-06 30.0007 	-6.32338e-06 	1.0178e-06 30.0007 	-6.32339e-06 	1.0178e-06 30.0007 	-6.32339e-06 	1.0178e-06 30.0004 	-1.25402e-07 	3.15805e-07 30.0007 	-6.21702e-06 	1.14063e-06 30.0007 	-6.21703e-06 	1.14063e-06 30.0007 	-6.21703e-06 	1.14063e-06 30.0007 	-6.21703e-06 	1.14063e-06 30.0004 	-1.26992e-07 	5.45522e-07 30.0007 	-6.11577e-06 	1.25633e-06 30.0007 	-6.11577e-06 	1.25633e-06 30.0007 	-6.11578e-06 	1.25633e-06 30.0007 	-6.11578e-06 	1.25633e-06 30.0004 	-1.76454e-06 	1.03206e-06 30.0007 	-6.02305e-06 	1.37128e-06 30.0007 	-6.02306e-06 	1.37128e-06 30.0007 	-6.02306e-06 	1.37128e-06 30.0007 	-6.02306e-06 	1.37128e-06 30.0004 	-1.30105e-07 	9.36938e-07 30.0007 	-5.9434e-06 	1.48851e-06 30.0007 	-5.9434e-06 	1.48851e-06 30.0007 	-5.9434e-06 	1.48851e-06 30.0007 	-5.94341e-06 	1.48851e-06 30.0004 	-1.31609e-07 	1.10456e-06 30.0007 	-5.8722e-06 	1.5929e-06 30.0007 	-5.8722e-06 	1.5929e-06 30.0007 	-5.87221e-06 	1.5929e-06 30.0007 	-5.87221e-06 	1.5929e-06 30.0004 	-1.59168e-06 	1.53876e-06 30.0007 	-5.80261e-06 	1.67933e-06 30.0007 	-5.80261e-06 	1.67933e-06 30.0007 	-5.80262e-06 	1.67933e-06 30.0007 	-5.80262e-06 	1.67933e-06 30.0003 	-1.54448e-06 	1.67821e-06 30.0007 	-5.73452e-06 	1.75012e-06 30.0007 	-5.73453e-06 	1.75012e-06 30.0007 	-5.73453e-06 	1.75012e-06 30.0007 	-5.73453e-06 	1.75012e-06 30.0003 	-1.3634e-07 	1.52473e-06 30.0006 	-5.66939e-06 	1.80982e-06 30.0006 	-5.6694e-06 	1.80982e-06 30.0006 	-5.6694e-06 	1.80982e-06 30.0006 	-5.66941e-06 	1.80982e-06 30.0003 	-1.37905e-07 	1.63227e-06 30.0006 	-5.60934e-06 	1.85995e-06 30.0006 	-5.60935e-06 	1.85995e-06 30.0006 	-5.60935e-06 	1.85995e-06 30.0006 	-5.60935e-06 	1.85996e-06 30.0003 	-1.39388e-07 	1.724e-06 30.0006 	-5.55507e-06 	1.90045e-06 30.0006 	-5.55507e-06 	1.90045e-06 30.0006 	-5.55508e-06 	1.90045e-06 30.0006 	-5.55508e-06 	1.90045e-06 30.0003 	-1.3892e-06 	2.07103e-06 30.0006 	-5.50626e-06 	1.93111e-06 30.0006 	-5.50626e-06 	1.93111e-06 30.0006 	-5.50627e-06 	1.93111e-06 30.0006 	-5.50627e-06 	1.93111e-06 30.0003 	-1.36218e-06 	2.13096e-06 30.0006 	-5.46251e-06 	1.95185e-06 30.0006 	-5.46251e-06 	1.95185e-06 30.0006 	-5.46252e-06 	1.95185e-06 30.0006 	-5.46252e-06 	1.95185e-06 30.0003 	-1.43452e-07 	1.90826e-06 30.0006 	-5.42373e-06 	1.96279e-06 30.0006 	-5.42373e-06 	1.9628e-06 30.0006 	-5.42374e-06 	1.9628e-06 30.0006 	-5.42374e-06 	1.9628e-06 30.0003 	-1.3238e-06 	2.20766e-06 30.0006 	-5.38979e-06 	1.96433e-06 30.0006 	-5.3898e-06 	1.96433e-06 30.0006 	-5.3898e-06 	1.96433e-06 30.0006 	-5.3898e-06 	1.96433e-06 30.0003 	-1.31204e-06 	2.22555e-06 30.0006 	-5.36063e-06 	1.95693e-06 30.0006 	-5.36064e-06 	1.95693e-06 30.0006 	-5.36064e-06 	1.95694e-06 30.0006 	-5.36065e-06 	1.95694e-06 30.0003 	-1.4736e-07 	1.96617e-06 30.0005 	-5.33614e-06 	1.94114e-06 30.0005 	-5.33614e-06 	1.94114e-06 30.0005 	-5.33614e-06 	1.94114e-06 30.0005 	-5.33615e-06 	1.94114e-06 30.0003 	-1.4862e-07 	1.96057e-06 30.0005 	-5.31617e-06 	1.91795e-06 30.0005 	-5.31617e-06 	1.91795e-06 30.0005 	-5.31617e-06 	1.91795e-06 30.0005 	-5.31618e-06 	1.91795e-06 30.0003 	-1.49844e-07 	1.94425e-06 30.0005 	-5.30059e-06 	1.88802e-06 30.0005 	-5.3006e-06 	1.88802e-06 30.0005 	-5.3006e-06 	1.88803e-06 30.0005 	-5.3006e-06 	1.88803e-06 30.0003 	-1.3095e-06 	2.17901e-06 30.0005 	-5.28927e-06 	1.85193e-06 30.0005 	-5.28928e-06 	1.85193e-06 30.0005 	-5.28928e-06 	1.85193e-06 30.0005 	-5.28928e-06 	1.85193e-06 30.0003 	-1.52213e-07 	1.88231e-06 30.0005 	-5.28201e-06 	1.81011e-06 30.0005 	-5.28201e-06 	1.81011e-06 30.0005 	-5.28202e-06 	1.81011e-06 30.0005 	-5.28202e-06 	1.81011e-06 30.0003 	-1.5334e-07 	1.83819e-06 30.0005 	-5.27859e-06 	1.76319e-06 30.0005 	-5.27859e-06 	1.76319e-06 30.0005 	-5.2786e-06 	1.76319e-06 30.0005 	-5.2786e-06 	1.76319e-06 30.0003 	-1.34875e-06 	2.0441e-06 30.0005 	-5.27879e-06 	1.71166e-06 30.0005 	-5.27879e-06 	1.71166e-06 30.0005 	-5.2788e-06 	1.71166e-06 30.0005 	-5.2788e-06 	1.71166e-06 30.0003 	-1.36883e-06 	1.98426e-06 30.0005 	-5.28235e-06 	1.65603e-06 30.0005 	-5.28236e-06 	1.65603e-06 30.0005 	-5.28236e-06 	1.65603e-06 30.0005 	-5.28236e-06 	1.65603e-06 30.0002 	-1.56585e-07 	1.66283e-06 30.0005 	-5.28917e-06 	1.59672e-06 30.0005 	-5.28917e-06 	1.59672e-06 30.0005 	-5.28917e-06 	1.59672e-06 30.0005 	-5.28918e-06 	1.59672e-06 30.0002 	-1.57649e-07 	1.59258e-06 30.0004 	-5.29914e-06 	1.53419e-06 30.0004 	-5.29915e-06 	1.53419e-06 30.0004 	-5.29915e-06 	1.5342e-06 30.0004 	-5.29915e-06 	1.5342e-06 30.0002 	-1.58736e-07 	1.51772e-06 30.0004 	-5.31211e-06 	1.46894e-06 30.0004 	-5.31212e-06 	1.46894e-06 30.0004 	-5.31212e-06 	1.46894e-06 30.0004 	-5.31212e-06 	1.46894e-06 30.0002 	-1.48052e-06 	1.69065e-06 30.0004 	-5.32769e-06 	1.40149e-06 30.0004 	-5.32769e-06 	1.40149e-06 30.0004 	-5.32769e-06 	1.40149e-06 30.0004 	-5.32769e-06 	1.40149e-06 30.0002 	-1.51505e-06 	1.60716e-06 30.0004 	-5.34556e-06 	1.33224e-06 30.0004 	-5.34557e-06 	1.33224e-06 30.0004 	-5.34557e-06 	1.33224e-06 30.0004 	-5.34557e-06 	1.33224e-06 30.0002 	-1.62004e-07 	1.27189e-06 30.0004 	-5.36559e-06 	1.26153e-06 30.0004 	-5.36559e-06 	1.26153e-06 30.0004 	-5.36559e-06 	1.26153e-06 30.0004 	-5.36559e-06 	1.26153e-06 30.0002 	-1.59038e-06 	1.43253e-06 30.0004 	-5.38743e-06 	1.18986e-06 30.0004 	-5.38743e-06 	1.18986e-06 30.0004 	-5.38743e-06 	1.18986e-06 30.0004 	-5.38744e-06 	1.18986e-06 30.0002 	-1.63087e-06 	1.34245e-06 30.0004 	-5.41107e-06 	1.11754e-06 30.0004 	-5.41107e-06 	1.11754e-06 30.0004 	-5.41107e-06 	1.11754e-06 30.0004 	-5.41108e-06 	1.11754e-06 30.0002 	-1.65027e-07 	1.00612e-06 30.0004 	-5.43615e-06 	1.04486e-06 30.0004 	-5.43615e-06 	1.04486e-06 30.0004 	-5.43615e-06 	1.04486e-06 30.0004 	-5.43615e-06 	1.04486e-06 30.0002 	-1.65962e-07 	9.15653e-07 30.0004 	-5.46183e-06 	9.72324e-07 30.0004 	-5.46183e-06 	9.72325e-07 30.0004 	-5.46184e-06 	9.72325e-07 30.0004 	-5.46184e-06 	9.72325e-07 30.0002 	-1.66871e-07 	8.25033e-07 30.0004 	-5.4879e-06 	8.99549e-07 30.0004 	-5.48791e-06 	8.9955e-07 30.0004 	-5.48791e-06 	8.9955e-07 30.0004 	-5.48791e-06 	8.9955e-07 30.0002 	-1.80777e-06 	9.75456e-07 30.0004 	-5.51471e-06 	8.26016e-07 30.0004 	-5.51472e-06 	8.26016e-07 30.0004 	-5.51472e-06 	8.26016e-07 30.0004 	-5.51472e-06 	8.26016e-07 30.0002 	-1.68588e-07 	6.43668e-07 30.0003 	-5.54446e-06 	7.52057e-07 30.0003 	-5.54446e-06 	7.52057e-07 30.0003 	-5.54447e-06 	7.52057e-07 30.0003 	-5.54447e-06 	7.52057e-07 30.0002 	-1.69407e-07 	5.52676e-07 30.0003 	-5.57896e-06 	6.77513e-07 30.0003 	-5.57896e-06 	6.77514e-07 30.0003 	-5.57897e-06 	6.77514e-07 30.0003 	-5.57897e-06 	6.77514e-07 30.0002 	-1.95615e-06 	7.01351e-07 30.0003 	-5.61584e-06 	6.04452e-07 30.0003 	-5.61584e-06 	6.04452e-07 30.0003 	-5.61584e-06 	6.04452e-07 30.0003 	-5.61585e-06 	6.04453e-07 30.0002 	-2.00833e-06 	6.11721e-07 30.0003 	-5.65189e-06 	5.34733e-07 30.0003 	-5.65189e-06 	5.34733e-07 30.0003 	-5.65189e-06 	5.34733e-07 30.0003 	-5.65189e-06 	5.34733e-07 30.0002 	-1.71897e-07 	2.80984e-07 30.0003 	-5.683e-06 	4.67711e-07 30.0003 	-5.68301e-06 	4.67711e-07 30.0003 	-5.68301e-06 	4.67711e-07 30.0003 	-5.68301e-06 	4.67711e-07 30.0002 	-1.72726e-07 	1.9737e-07 30.0003 	-5.71145e-06 	4.03266e-07 30.0003 	-5.71145e-06 	4.03266e-07 30.0003 	-5.71145e-06 	4.03266e-07 30.0003 	-5.71145e-06 	4.03266e-07 30.0002 	-1.73528e-07 	1.1644e-07 30.0003 	-5.73963e-06 	3.39307e-07 30.0003 	-5.73963e-06 	3.39307e-07 30.0003 	-5.73963e-06 	3.39307e-07 30.0003 	-5.73963e-06 	3.39307e-07 30.0002 	-2.20159e-06 	2.74122e-07 30.0003 	-5.76761e-06 	2.75342e-07 30.0003 	-5.76761e-06 	2.75342e-07 30.0003 	-5.76761e-06 	2.75342e-07 30.0003 	-5.76761e-06 	2.75342e-07 30.0002 	-2.24851e-06 	1.96378e-07 30.0003 	-5.79429e-06 	2.10852e-07 30.0003 	-5.79429e-06 	2.10852e-07 30.0003 	-5.79429e-06 	2.10852e-07 30.0003 	-5.79429e-06 	2.10852e-07 30.0002 	-1.75665e-07 	-1.09108e-07 30.0003 	-5.82226e-06 	1.48839e-07 30.0003 	-5.82226e-06 	1.48839e-07 30.0003 	-5.82226e-06 	1.48839e-07 30.0003 	-5.82226e-06 	1.48839e-07 30.0002 	-2.34225e-06 	4.46928e-08 30.0003 	-5.85153e-06 	9.00471e-08 30.0003 	-5.85153e-06 	9.00471e-08 30.0003 	-5.85153e-06 	9.00471e-08 30.0003 	-5.85153e-06 	9.00471e-08 30.0002 	-2.38955e-06 	-2.90815e-08 30.0003 	-5.88194e-06 	3.48776e-08 30.0003 	-5.88194e-06 	3.48776e-08 30.0003 	-5.88194e-06 	3.48776e-08 30.0003 	-5.88194e-06 	3.48776e-08 30.0002 	-1.77631e-07 	-3.30735e-07 30.0003 	-5.91359e-06 	-1.70117e-08 30.0003 	-5.91359e-06 	-1.70117e-08 30.0003 	-5.91359e-06 	-1.70117e-08 30.0003 	-5.91359e-06 	-1.70117e-08 30.0002 	-1.78232e-07 	-4.01771e-07 30.0003 	-5.94672e-06 	-6.89929e-08 30.0003 	-5.94672e-06 	-6.89929e-08 30.0003 	-5.94672e-06 	-6.89929e-08 30.0003 	-5.94672e-06 	-6.89929e-08 30.0002 	-1.78835e-07 	-4.67044e-07 30.0003 	-5.97869e-06 	-1.23253e-07 30.0003 	-5.97869e-06 	-1.23253e-07 30.0003 	-5.97869e-06 	-1.23253e-07 30.0003 	-5.97868e-06 	-1.23253e-07 30.0002 	-2.58104e-06 	-3.0136e-07 30.0003 	-6.00647e-06 	-1.77898e-07 30.0003 	-6.00647e-06 	-1.77898e-07 30.0003 	-6.00646e-06 	-1.77898e-07 30.0003 	-6.00646e-06 	-1.77898e-07 30.0002 	-1.80014e-07 	-5.84857e-07 30.0003 	-6.03058e-06 	-2.29158e-07 30.0003 	-6.03058e-06 	-2.29158e-07 30.0003 	-6.03058e-06 	-2.29158e-07 30.0003 	-6.03058e-06 	-2.29158e-07 30.0002 	-1.80595e-07 	-6.42121e-07 30.0003 	-6.05383e-06 	-2.76122e-07 30.0003 	-6.05383e-06 	-2.76122e-07 30.0003 	-6.05382e-06 	-2.76122e-07 30.0003 	-6.05382e-06 	-2.76122e-07 30.0002 	-2.7091e-06 	-4.78962e-07 30.0003 	-6.07769e-06 	-3.19598e-07 30.0003 	-6.07769e-06 	-3.19598e-07 30.0003 	-6.07769e-06 	-3.19598e-07 30.0003 	-6.07769e-06 	-3.19598e-07 30.0002 	-2.75012e-06 	-5.34007e-07 30.0003 	-6.10187e-06 	-3.61136e-07 30.0003 	-6.10187e-06 	-3.61136e-07 30.0003 	-6.10187e-06 	-3.61136e-07 30.0003 	-6.10187e-06 	-3.61136e-07 30.0002 	-1.82322e-07 	-8.03761e-07 30.0003 	-6.1259e-06 	-4.01333e-07 30.0003 	-6.1259e-06 	-4.01333e-07 30.0003 	-6.1259e-06 	-4.01333e-07 30.0003 	-6.1259e-06 	-4.01333e-07 30.0001 	-1.82869e-07 	-8.53081e-07 30.0003 	-6.14931e-06 	-4.40328e-07 30.0003 	-6.14931e-06 	-4.40327e-07 30.0003 	-6.14931e-06 	-4.40327e-07 30.0003 	-6.14931e-06 	-4.40327e-07 30.0001 	-1.83409e-07 	-9.0029e-07 30.0003 	-6.17197e-06 	-4.77944e-07 30.0003 	-6.17197e-06 	-4.77944e-07 30.0003 	-6.17197e-06 	-4.77944e-07 30.0003 	-6.17197e-06 	-4.77944e-07 30.0001 	-2.9096e-06 	-7.31438e-07 30.0003 	-6.19377e-06 	-5.14159e-07 30.0003 	-6.19377e-06 	-5.14159e-07 30.0003 	-6.19377e-06 	-5.14159e-07 30.0003 	-6.19377e-06 	-5.14159e-07 30.0001 	-2.94748e-06 	-7.75566e-07 30.0003 	-6.21463e-06 	-5.48787e-07 30.0003 	-6.21463e-06 	-5.48787e-07 30.0003 	-6.21463e-06 	-5.48787e-07 30.0003 	-6.21463e-06 	-5.48787e-07 30.0001 	-1.84902e-07 	-1.02951e-06 30.0003 	-6.23469e-06 	-5.82007e-07 30.0003 	-6.23469e-06 	-5.82007e-07 30.0003 	-6.23469e-06 	-5.82007e-07 30.0003 	-6.23469e-06 	-5.82007e-07 30.0001 	-3.02044e-06 	-8.57455e-07 30.0003 	-6.25397e-06 	-6.13846e-07 30.0003 	-6.25397e-06 	-6.13846e-07 30.0003 	-6.25397e-06 	-6.13846e-07 30.0003 	-6.25397e-06 	-6.13846e-07 30.0001 	-3.05553e-06 	-8.95463e-07 30.0003 	-6.27246e-06 	-6.4437e-07 30.0003 	-6.27246e-06 	-6.4437e-07 30.0003 	-6.27245e-06 	-6.4437e-07 30.0003 	-6.27245e-06 	-6.4437e-07 30.0001 	-1.86301e-07 	-1.14082e-06 30.0003 	-6.2901e-06 	-6.73573e-07 30.0003 	-6.2901e-06 	-6.73572e-07 30.0003 	-6.2901e-06 	-6.73572e-07 30.0003 	-6.2901e-06 	-6.73572e-07 30.0001 	-1.86734e-07 	-1.17458e-06 30.0003 	-6.30713e-06 	-7.01391e-07 30.0003 	-6.30713e-06 	-7.01391e-07 30.0003 	-6.30712e-06 	-7.01391e-07 30.0003 	-6.30712e-06 	-7.01391e-07 30.0001 	-1.8718e-07 	-1.20667e-06 30.0003 	-6.32321e-06 	-7.27819e-07 30.0003 	-6.32321e-06 	-7.27819e-07 30.0003 	-6.32321e-06 	-7.27819e-07 30.0003 	-6.32321e-06 	-7.27819e-07 30.0001 	-3.18695e-06 	-1.03098e-06 30.0003 	-6.33848e-06 	-7.52932e-07 30.0003 	-6.33848e-06 	-7.52932e-07 30.0003 	-6.33847e-06 	-7.52932e-07 30.0003 	-6.33847e-06 	-7.52931e-07 30.0001 	-1.88039e-07 	-1.26595e-06 30.0003 	-6.35298e-06 	-7.76902e-07 30.0003 	-6.35298e-06 	-7.76902e-07 30.0003 	-6.35298e-06 	-7.76902e-07 30.0003 	-6.35298e-06 	-7.76901e-07 30.0001 	-1.88443e-07 	-1.2933e-06 30.0003 	-6.3668e-06 	-7.99773e-07 30.0003 	-6.3668e-06 	-7.99773e-07 30.0003 	-6.36679e-06 	-7.99772e-07 30.0003 	-6.36679e-06 	-7.99772e-07 30.0001 	-3.27635e-06 	-1.11603e-06 30.0003 	-6.37989e-06 	-8.21498e-07 30.0003 	-6.37988e-06 	-8.21498e-07 30.0003 	-6.37988e-06 	-8.21498e-07 30.0003 	-6.37988e-06 	-8.21498e-07 30.0001 	-3.30446e-06 	-1.14151e-06 30.0003 	-6.39214e-06 	-8.41939e-07 30.0003 	-6.39214e-06 	-8.41938e-07 30.0003 	-6.39214e-06 	-8.41938e-07 30.0003 	-6.39214e-06 	-8.41938e-07 30.0001 	-1.89631e-07 	-1.36685e-06 30.0003 	-6.40376e-06 	-8.6133e-07 30.0003 	-6.40376e-06 	-8.61329e-07 30.0003 	-6.40376e-06 	-8.61329e-07 30.0003 	-6.40376e-06 	-8.61329e-07 30.0001 	-1.90013e-07 	-1.38872e-06 30.0003 	-6.41471e-06 	-8.79768e-07 30.0003 	-6.41471e-06 	-8.79767e-07 30.0003 	-6.41471e-06 	-8.79767e-07 30.0003 	-6.41471e-06 	-8.79767e-07 30.0001 	-1.90393e-07 	-1.40938e-06 30.0003 	-6.42496e-06 	-8.9725e-07 30.0003 	-6.42496e-06 	-8.97249e-07 30.0003 	-6.42496e-06 	-8.97249e-07 30.0003 	-6.42496e-06 	-8.97249e-07 30.0001 	-3.40876e-06 	-1.23051e-06 30.0003 	-6.43454e-06 	-9.13835e-07 30.0003 	-6.43454e-06 	-9.13834e-07 30.0003 	-6.43454e-06 	-9.13834e-07 30.0003 	-6.43454e-06 	-9.13834e-07 30.0001 	-3.43288e-06 	-1.24984e-06 30.0003 	-6.44338e-06 	-9.29525e-07 30.0003 	-6.44338e-06 	-9.29525e-07 30.0003 	-6.44338e-06 	-9.29524e-07 30.0003 	-6.44337e-06 	-9.29524e-07 30.0001 	-1.9145e-07 	-1.46454e-06 30.0003 	-6.45162e-06 	-9.44382e-07 30.0003 	-6.45162e-06 	-9.44382e-07 30.0003 	-6.45162e-06 	-9.44381e-07 30.0003 	-6.45161e-06 	-9.44381e-07 30.0001 	-3.47893e-06 	-1.28533e-06 30.0003 	-6.4593e-06 	-9.58384e-07 30.0003 	-6.4593e-06 	-9.58384e-07 30.0003 	-6.4593e-06 	-9.58384e-07 30.0003 	-6.45929e-06 	-9.58383e-07 30.0001 	-3.50097e-06 	-1.30159e-06 30.0003 	-6.46638e-06 	-9.71677e-07 30.0003 	-6.46637e-06 	-9.71677e-07 30.0003 	-6.46637e-06 	-9.71676e-07 30.00