# vtk DataFile Version 2.0
track0
ASCII
DATASET POLYDATA
POINTS 15780 float
-1.001 -0.05 0.0011
-1.0008 -0.05 0.0011
-1.0006 -0.05 0.0011
-1.0004 -0.05 0.0011
-1.0002 -0.05 0.0011
-1 -0.05 0.0011
-0.9875 -0.05 0.0011
-0.975 -0.05 0.0011
-0.9625 -0.05 0.0011
-0.95 -0.05 0.0011
-0.9375 -0.05 0.00109999
-0.925 -0.05 0.00109999
-0.9125 -0.05 0.00109999
-0.9 -0.05 0.00109999
-0.8875 -0.05 0.00109999
-0.875 -0.05 0.00109999
-0.8625 -0.05 0.00109999
-0.85 -0.05 0.00109999
-0.8375 -0.05 0.00109998
-0.825 -0.0500001 0.00109998
-0.8125 -0.0500001 0.00109998
-0.8 -0.0500001 0.00109998
-0.7875 -0.0500001 0.00109998
-0.775 -0.0500001 0.00109998
-0.7625 -0.0500001 0.00109998
-0.75 -0.0500001 0.00109998
-0.7375 -0.0500001 0.00109997
-0.725 -0.0500001 0.00109997
-0.7125 -0.0500001 0.00109997
-0.7 -0.0500001 0.00109997
-0.6875 -0.0500001 0.00109997
-0.675 -0.0500001 0.00109997
-0.6625 -0.0500001 0.00109997
-0.65 -0.0500001 0.00109996
-0.6375 -0.0500001 0.00109996
-0.625 -0.0500001 0.00109996
-0.6125 -0.0500001 0.00109996
-0.6 -0.0500001 0.00109996
-0.5875 -0.0500001 0.00109996
-0.575 -0.0500001 0.00109996
-0.5625 -0.0500001 0.00109996
-0.55 -0.0500001 0.00109995
-0.5375 -0.0500001 0.00109995
-0.525 -0.0500001 0.00109995
-0.5125 -0.0500001 0.00109995
-0.5 -0.0500001 0.00109995
-0.4875 -0.0500001 0.00109995
-0.475 -0.0500001 0.00109995
-0.4625 -0.0500001 0.00109994
-0.45 -0.0500002 0.00109994
-0.4375 -0.0500002 0.00109994
-0.425 -0.0500002 0.00109994
-0.4125 -0.0500002 0.00109994
-0.4 -0.0500002 0.00109994
-0.3875 -0.0500002 0.00109994
-0.375 -0.0500002 0.00109994
-0.3625 -0.0500002 0.00109993
-0.35 -0.0500002 0.00109993
-0.3375 -0.0500002 0.00109993
-0.325 -0.0500002 0.00109993
-0.3125 -0.0500002 0.00109993
-0.3 -0.0500002 0.00109993
-0.2875 -0.0500002 0.00109993
-0.275 -0.0500002 0.00109993
-0.2625 -0.0500002 0.00109992
-0.25 -0.0500002 0.00109992
-0.2375 -0.0500002 0.00109992
-0.225 -0.0500002 0.00109992
-0.2125 -0.0500002 0.00109992
-0.2 -0.0500002 0.00109992
-0.1875 -0.0500002 0.00109992
-0.175 -0.0500002 0.00109992
-0.1625 -0.0500002 0.00109991
-0.15 -0.0500002 0.00109991
-0.1375 -0.0500002 0.00109991
-0.125 -0.0500002 0.00109991
-0.1125 -0.0500002 0.00109991
-0.1 -0.0500002 0.00109991
-0.0875 -0.0500002 0.00109991
-0.075 -0.0500002 0.00109991
-0.0625 -0.0500002 0.00109991
-0.05 -0.0500003 0.00109991
-0.0375 -0.0500003 0.0010999
-0.025 -0.0500003 0.0010999
-0.0125 -0.0500003 0.0010999
2.10607e-13 -0.0500003 0.0010999
0.0125 -0.0500003 0.0010999
0.025 -0.0500003 0.0010999
0.0375 -0.0500003 0.0010999
0.05 -0.0500003 0.0010999
0.0625 -0.0500003 0.0010999
0.075 -0.0500003 0.0010999
0.0875 -0.0500003 0.0010999
0.1 -0.0500003 0.00109989
0.1125 -0.0500003 0.00109989
0.125 -0.0500003 0.00109989
0.1375 -0.0500003 0.00109989
0.15 -0.0500003 0.00109989
0.1625 -0.0500003 0.00109989
0.175 -0.0500003 0.00109989
0.1875 -0.0500003 0.00109989
0.2 -0.0500003 0.00109989
0.2125 -0.0500003 0.00109989
0.225 -0.0500003 0.00109989
0.2375 -0.0500003 0.00109989
0.25 -0.0500003 0.00109989
0.2625 -0.0500003 0.00109988
0.275 -0.0500003 0.00109988
0.2875 -0.0500003 0.00109988
0.3 -0.0500003 0.00109988
0.3125 -0.0500003 0.00109988
0.325 -0.0500003 0.00109988
0.3375 -0.0500003 0.00109988
0.35 -0.0500003 0.00109988
0.3625 -0.0500003 0.00109988
0.375 -0.0500003 0.00109988
0.3875 -0.0500003 0.00109988
0.4 -0.0500004 0.00109988
0.4125 -0.0500004 0.00109988
0.425 -0.0500004 0.00109988
0.4375 -0.0500004 0.00109988
0.45 -0.0500004 0.00109988
0.4625 -0.0500004 0.00109988
0.475 -0.0500004 0.00109988
0.4875 -0.0500004 0.00109988
0.5 -0.0500004 0.00109988
0.5125 -0.0500004 0.00109988
0.525 -0.0500004 0.00109988
0.5375 -0.0500004 0.00109988
0.55 -0.0500004 0.00109988
0.5625 -0.0500004 0.00109988
0.575 -0.0500004 0.00109987
0.5875 -0.0500004 0.00109987
0.6 -0.0500004 0.00109987
0.6125 -0.0500004 0.00109987
0.625 -0.0500004 0.00109987
0.6375 -0.0500004 0.00109987
0.65 -0.0500004 0.00109987
0.6625 -0.0500004 0.00109987
0.675 -0.0500004 0.00109987
0.6875 -0.0500004 0.00109987
0.7 -0.0500004 0.00109987
0.7125 -0.0500004 0.00109987
0.725 -0.0500004 0.00109987
0.7375 -0.0500004 0.00109987
0.75 -0.0500004 0.00109987
0.7625 -0.0500004 0.00109987
0.775 -0.0500004 0.00109987
0.7875 -0.0500004 0.00109987
0.8 -0.0500004 0.00109987
0.8125 -0.0500004 0.00109987
0.825 -0.0500004 0.00109987
0.8375 -0.0500004 0.00109987
0.85 -0.0500004 0.00109987
0.8625 -0.0500004 0.00109987
0.875 -0.0500004 0.00109987
0.8875 -0.0500004 0.00109987
0.9 -0.0500004 0.00109987
0.9125 -0.0500005 0.00109988
0.925 -0.0500005 0.00109988
0.9375 -0.0500005 0.00109988
0.95 -0.0500005 0.00109988
0.9625 -0.0500005 0.00109988
0.975 -0.0500005 0.00109988
0.9875 -0.0500005 0.00109988
1 -0.0500005 0.00109988
1.0125 -0.0500005 0.00109988
1.025 -0.0500005 0.00109988
1.0375 -0.0500005 0.00109988
1.05 -0.0500005 0.00109988
1.0625 -0.0500005 0.00109988
1.075 -0.0500005 0.00109988
1.0875 -0.0500005 0.00109988
1.1 -0.0500005 0.00109988
1.1125 -0.0500005 0.00109988
1.125 -0.0500005 0.00109988
1.1375 -0.0500005 0.00109988
1.15 -0.0500005 0.00109988
1.1625 -0.0500005 0.00109988
1.175 -0.0500005 0.00109988
1.1875 -0.0500005 0.00109988
1.2 -0.0500005 0.00109988
1.2125 -0.0500005 0.00109988
1.225 -0.0500005 0.00109988
1.2375 -0.0500005 0.00109989
1.25 -0.0500005 0.00109989
1.2625 -0.0500005 0.00109989
1.275 -0.0500005 0.00109989
1.2875 -0.0500005 0.00109989
1.3 -0.0500005 0.00109989
1.3125 -0.0500005 0.00109989
1.325 -0.0500005 0.00109989
1.3375 -0.0500005 0.00109989
1.35 -0.0500005 0.00109989
1.3625 -0.0500005 0.00109989
1.375 -0.0500005 0.00109989
1.3875 -0.0500005 0.00109989
1.4 -0.0500005 0.00109989
1.4125 -0.0500005 0.00109989
1.425 -0.0500005 0.00109989
1.4375 -0.0500005 0.0010999
1.45 -0.0500005 0.0010999
1.4625 -0.0500005 0.0010999
1.475 -0.0500005 0.0010999
1.4875 -0.0500005 0.0010999
1.5 -0.0500006 0.0010999
1.5125 -0.0500006 0.0010999
1.525 -0.0500006 0.0010999
1.5375 -0.0500006 0.0010999
1.55 -0.0500006 0.0010999
1.5625 -0.0500006 0.0010999
1.575 -0.0500006 0.0010999
1.5875 -0.0500006 0.0010999
1.6 -0.0500006 0.0010999
1.6125 -0.0500006 0.00109991
1.625 -0.0500006 0.00109991
1.6375 -0.0500006 0.00109991
1.65 -0.0500006 0.00109991
1.6625 -0.0500006 0.00109991
1.675 -0.0500006 0.00109991
1.6875 -0.0500006 0.00109991
1.7 -0.0500006 0.00109991
1.7125 -0.0500006 0.00109991
1.725 -0.0500006 0.00109991
1.7375 -0.0500006 0.00109991
1.75 -0.0500006 0.00109991
1.7625 -0.0500006 0.00109992
1.775 -0.0500006 0.00109992
1.7875 -0.0500006 0.00109992
1.8 -0.0500006 0.00109992
1.8125 -0.0500006 0.00109992
1.825 -0.0500006 0.00109992
1.8375 -0.0500006 0.00109992
1.85 -0.0500006 0.00109992
1.8625 -0.0500006 0.00109992
1.875 -0.0500006 0.00109992
1.8875 -0.0500006 0.00109992
1.9 -0.0500006 0.00109992
1.9125 -0.0500006 0.00109993
1.925 -0.0500006 0.00109993
1.9375 -0.0500006 0.00109993
1.95 -0.0500006 0.00109993
1.9625 -0.0500006 0.00109993
1.975 -0.0500006 0.00109993
1.9875 -0.0500006 0.00109993
2 -0.0500006 0.00109993
2.0125 -0.0500006 0.00109993
2.025 -0.0500006 0.00109993
2.0375 -0.0500006 0.00109993
2.05 -0.0500006 0.00109993
2.0625 -0.0500006 0.00109994
2.075 -0.0500006 0.00109994
2.0875 -0.0500006 0.00109994
2.1 -0.0500006 0.00109994
2.1125 -0.0500006 0.00109994
2.125 -0.0500006 0.00109994
2.1375 -0.0500006 0.00109994
2.15 -0.0500006 0.00109994
2.1625 -0.0500006 0.00109994
2.175 -0.0500007 0.00109994
2.1875 -0.0500007 0.00109994
2.2 -0.0500007 0.00109994
2.2125 -0.0500007 0.00109994
2.225 -0.0500007 0.00109995
2.2375 -0.0500007 0.00109995
2.25 -0.0500007 0.00109995
2.2625 -0.0500007 0.00109995
2.275 -0.0500007 0.00109995
2.2875 -0.0500007 0.00109995
2.3 -0.0500007 0.00109995
2.3125 -0.0500007 0.00109995
2.325 -0.0500007 0.00109995
2.3375 -0.0500007 0.00109995
2.35 -0.0500007 0.00109995
2.3625 -0.0500007 0.00109995
2.375 -0.0500007 0.00109995
2.3875 -0.0500007 0.00109996
2.4 -0.0500007 0.00109996
2.4125 -0.0500007 0.00109996
2.425 -0.0500007 0.00109996
2.4375 -0.0500007 0.00109996
2.45 -0.0500007 0.00109996
2.4625 -0.0500007 0.00109996
2.475 -0.0500007 0.00109996
2.4875 -0.0500007 0.00109996
2.5 -0.0500007 0.00109996
2.5125 -0.0500007 0.00109996
2.525 -0.0500007 0.00109996
2.5375 -0.0500007 0.00109996
2.55 -0.0500007 0.00109996
2.5625 -0.0500007 0.00109997
2.575 -0.0500007 0.00109997
2.5875 -0.0500007 0.00109997
2.6 -0.0500007 0.00109997
2.6125 -0.0500007 0.00109997
2.625 -0.0500007 0.00109997
2.6375 -0.0500007 0.00109997
2.65 -0.0500007 0.00109997
2.6625 -0.0500007 0.00109997
2.675 -0.0500007 0.00109997
2.6875 -0.0500007 0.00109997
2.7 -0.0500007 0.00109997
2.7125 -0.0500007 0.00109997
2.725 -0.0500007 0.00109997
2.7375 -0.0500007 0.00109997
2.75 -0.0500007 0.00109997
2.7625 -0.0500007 0.00109998
2.775 -0.0500007 0.00109998
2.7875 -0.0500007 0.00109998
2.8 -0.0500007 0.00109998
2.8125 -0.0500007 0.00109998
2.825 -0.0500007 0.00109998
2.8375 -0.0500007 0.00109998
2.85 -0.0500007 0.00109998
2.8625 -0.0500008 0.00109998
2.875 -0.0500008 0.00109998
2.8875 -0.0500008 0.00109998
2.9 -0.0500008 0.00109998
2.9125 -0.0500008 0.00109998
2.925 -0.0500008 0.00109998
2.9375 -0.0500008 0.00109998
2.95 -0.0500008 0.00109998
2.9625 -0.0500008 0.00109998
2.975 -0.0500008 0.00109998
2.9875 -0.0500008 0.00109998
3 -0.0500008 0.00109998
3.0125 -0.0500008 0.00109999
3.025 -0.0500008 0.00109999
3.0375 -0.0500008 0.00109999
3.05 -0.0500008 0.00109999
3.0625 -0.0500008 0.00109999
3.075 -0.0500008 0.00109999
3.0875 -0.0500008 0.00109999
3.1 -0.0500008 0.00109999
3.1125 -0.0500008 0.00109999
3.125 -0.0500008 0.00109999
3.1375 -0.0500008 0.00109999
3.15 -0.0500008 0.00109999
3.1625 -0.0500008 0.00109999
3.175 -0.0500008 0.00109999
3.1875 -0.0500008 0.00109999
3.2 -0.0500008 0.00109999
3.2125 -0.0500008 0.00109999
3.225 -0.0500008 0.00109999
3.2375 -0.0500008 0.00109999
3.25 -0.0500008 0.00109999
3.2625 -0.0500008 0.00109999
3.275 -0.0500008 0.00109999
3.2875 -0.0500008 0.00109999
3.3 -0.0500008 0.00109999
3.3125 -0.0500008 0.00109999
3.325 -0.0500008 0.00109999
3.3375 -0.0500008 0.00109999
3.35 -0.0500008 0.0011
3.3625 -0.0500008 0.0011
[...]
POINT_DATA 15780
 FIELD attributes 2
p 1 15780 float
-0.031098 -0.031114 -0.0311301 -0.0311461 -0.0311622 -0.0311782 -0.0321097 -0.0330334 -0.0339572 -0.0348809 -0.0359013 -0.0369652 -0.0380315 -0.0390979 -0.0401643 -0.0411839 -0.0421674 -0.0431322 -0.044097 -0.0450618 -0.045975 -0.0468728 -0.0477753 -0.0486779 -0.0495804 -0.0504772 -0.0513778 -0.0522793 -0.0531808 -0.0540823 -0.0549831 -0.0558906 -0.0567986 -0.0577065 -0.0586145 -0.059522 -0.0604216 -0.0613191 -0.0622166 -0.0631141 -0.0640087 -0.0648877 -0.0657649 -0.066642 -0.0675192 -0.0683942 -0.0692516 -0.0701069 -0.0709622 -0.0718175 -0.0726709 -0.0735056 -0.0743376 -0.0751696 -0.0760017 -0.0768314 -0.0776397 -0.0784448 -0.07925 -0.0800552 -0.0808575 -0.0816356 -0.0824099 -0.0831841 -0.0839584 -0.0847291 -0.0854732 -0.0862132 -0.0869531 -0.0876931 -0.0884292 -0.0891365 -0.089839 -0.0905416 -0.0912442 -0.0919421 -0.0926094 -0.0932716 -0.0939337 -0.0945959 -0.0952531 -0.0958775 -0.0964964 -0.0971152 -0.0977341 -0.0983474 -0.0989264 -0.0994996 -0.100073 -0.100646 -0.101213 -0.101746 -0.102272 -0.102798 -0.103324 -0.103845 -0.104329 -0.104807 -0.105284 -0.105762 -0.106234 -0.106668 -0.107094 -0.107521 -0.107948 -0.108367 -0.108748 -0.10912 -0.109493 -0.109866 -0.110231 -0.110556 -0.110873 -0.11119 -0.111507 -0.111816 -0.112085 -0.112345 -0.112605 -0.112865 -0.113117 -0.113328 -0.113531 -0.113733 -0.113936 -0.114131 -0.114283 -0.114427 -0.114571 -0.114715 -0.114851 -0.114944 -0.115029 -0.115115 -0.1152 -0.115278 -0.115314 -0.115343 -0.115372 -0.1154 -0.115421 -0.115403 -0.115378 -0.115353 -0.115327 -0.115294 -0.115224 -0.115146 -0.115068 -0.114991 -0.114906 -0.114783 -0.114654 -0.114524 -0.114395 -0.114258 -0.114084 -0.113903 -0.113721 -0.11354 -0.113352 -0.113128 -0.112898 -0.112667 -0.112437 -0.112199 -0.111929 -0.111652 -0.111375 -0.111098 -0.110815 -0.110501 -0.11018 -0.109859 -0.109538 -0.109211 -0.108855 -0.108492 -0.10813 -0.107767 -0.107398 -0.107002 -0.1066 -0.106198 -0.105796 -0.105388 -0.104955 -0.104517 -0.104079 -0.10364 -0.103196 -0.10273 -0.10226 -0.101789 -0.101319 -0.100844 -0.10035 -0.0998515 -0.0993534 -0.0988553 -0.0983531 -0.0978343 -0.0973118 -0.0967894 -0.096267 -0.0957407 -0.0951997 -0.0946554 -0.094111 -0.0935666 -0.0930186 -0.0924576 -0.0918938 -0.0913301 -0.0907663 -0.0901993 -0.0896217 -0.0890415 -0.0884613 -0.0878811 -0.087298 -0.0867065 -0.0861131 -0.0855197 -0.0849263 -0.0843307 -0.0837288 -0.0831253 -0.0825218 -0.0819182 -0.0813127 -0.080703 -0.0800922 -0.0794814 -0.0788706 -0.0782583 -0.0776438 -0.0770284 -0.076413 -0.0757976 -0.075181 -0.074564 -0.0739466 -0.0733291 -0.0727117 -0.0720936 -0.0714768 -0.0708598 -0.0702428 -0.0696258 -0.0690083 -0.0683938 -0.0677794 -0.0671651 -0.0665507 -0.0659363 -0.0653263 -0.0647166 -0.0641069 -0.0634972 -0.0628876 -0.0622836 -0.0616804 -0.0610772 -0.060474 -0.0598713 -0.0592754 -0.0586804 -0.0580854 -0.0574903 -0.056896 -0.0563095 -0.0557242 -0.0551389 -0.0545537 -0.0539694 -0.053394 -0.0528199 -0.0522457 -0.0516716 -0.0510986 -0.0505352 -0.0499734 -0.0494117 -0.0488499 -0.0482896 -0.0477395 -0.0471912 -0.0466428 -0.0460944 -0.0455476 -0.0450116 -0.0444776 -0.0439436 -0.0434095 -0.0428772 -0.0423564 -0.0418374 -0.0413185 -0.0407995 -0.0402824 -0.039777 -0.0392738 -0.0387706 -0.0382674 -0.0377662 -0.0372771 -0.0367901 -0.0363032 -0.0358162 -0.0353313 -0.0348586 -0.0343883 -0.0339179 -0.0334475 -0.0329794 -0.0325236 -0.0320702 -0.0316167 -0.0311632 -0.030712 -0.0302731 -0.0298367 -0.0294003 -0.0289639 -0.0285298 -0.0281081 -0.0276888 -0.0272694 -0.0268501 -0.0264331 -0.0260285 -0.0256263 -0.025224 -0.0248218 -0.024422 -0.0240344 -0.0236493 -0.0232642 -0.0228791 -0.0224964 -0.022126 -0.0217581 -0.0213902 -0.0210223 -0.0206569 -0.0203037 -0.0199529 -0.0196022 -0.0192515 -0.018903 -0.0185664 -0.0182324 -0.0178984 -0.0175643 -0.0172328 -0.0169124 -0.0165945 -0.0162766 -0.0159587 -0.0156433 -0.0153387 -0.0150364 -0.0147341 -0.0144318 -0.0141319 -0.0138426 -0.0135555 -0.0132685 -0.0129814 -0.0126969 -0.0124226 -0.0121505 -0.0118784 -0.0116064 -0.0113365 -0.0110769 -0.0108194 -0.0105619 -0.0103045 -0.0100493 -0.00980398 -0.00956082 -0.00931767 -0.00907451 -0.00883355 -0.00860208 -0.00837264 -0.00814321 -0.00791377 -0.00768642 -0.00746807 -0.00725182 -0.00703557 -0.00681932 -0.00660515 -0.00639962 -0.00619612 -0.00599263 -0.00578913 -0.00558763 -0.0053944 -0.00520329 -0.00501218 -0.00482106 -0.00463205 -0.004451 -0.00427207 -0.00409313 -0.0039142 -0.00373731 -0.00356808 -0.0034009 -0.00323372 -0.00306653 -0.0029014 -0.00274335 -0.00258717 -0.002431 -0.00227482 -0.00212068 -0.00197316 -0.00182718 -0.0016812 -0.00153522 -0.00139102 -0.00125306 -0.0011167 -0.000980338 -0.000843979 -0.000709394 -0.000580719 -0.000453653 -0.000326587 -0.000199521 -7.41005e-05 4.55684e-05 0.000163622 0.000281675 0.000399729 0.000516164 0.000627151 0.000736552 0.000845954 0.000955355 0.00106313 0.00116587 0.00126706 0.00136825 0.00146944 0.00156904 0.00166393 0.00175737 0.0018508 0.00194424 0.00203616 0.00212369 0.0022098 0.00229591 0.00238201 0.00246664 0.00254715 0.00262632 0.0027055 0.00278467 0.00286245 0.00293639 0.00300901 0.00308164 0.00315427 0.0032255 0.0032932 0.00335965 0.0034261 0.00349256 0.00355771 0.00361957 0.0036802 0.00374084 0.00380148 0.00386084 0.00391716 0.00397234 0.00402752 0.0040827 0.00413667 0.00418787 0.00423793 0.00428798 0.00433804 0.0043869 0.00443321 0.00447844 0.00452367 0.00456891 0.00461301 0.00465478 0.00469549 0.00473619 0.0047769 0.00481649 0.00485395 0.00489042 0.00492688 0.00496335 0.00499877 0.00503227 0.00506478 0.00509729 0.0051298 0.00516126 0.005191 0.00521981 0.00524863 0.00527744 0.00530529 0.00533156 0.00535693 0.00538229 0.00540766 0.00543207 0.00545507 0.00547723 0.00549939 0.00552155 0.0055428 0.00556284 0.00558202 0.00560121 0.0056204 0.00563868 0.0056559 0.00567234 0.00568877 0.00570521 0.0057208 0.00573548 0.00574937 0.00576326 0.00577715 0.00579022 0.00580248 0.00581402 0.00582557 0.00583711 0.00584788 0.00585798 0.00586736 0.00587674 0.00588612 0.00589472 0.00590279 0.00591018 0.00591758 0.00592497 0.00593165 0.00593789 0.00594347 0.00594904 0.00595462 0.00595948 0.00596402 0.00596794 0.00597185 0.00597577 0.00597902 0.00598206 0.00598447 0.00598688 0.0059893 0.00599103 0.00599267 0.00599371 0.00599476 0.0059958 0.00599621 0.00599661 0.00599641 0.00599621 0.00599602 0.00599519 0.00599443 0.00599312 0.00599182 0.00599051 0.00598862 0.00598688 0.00598459 0.0059823 0.00598001 0.00597714 0.00597449 0.00597132 0.00596815 0.00596498 0.00596126 0.00595784 0.00595389 0.00594995 0.00594601 0.00594152 0.00593739 0.00593278 0.00592817 0.00592356 0.00591843 0.00591375 0.00590857 0.0059034 0.00589822 0.00589253 0.00588735 0.0058817 0.00587605 0.0058704 0.00586427 0.0058587 0.00585267 0.00584664 0.00584061 0.0058341 0.0058282 0.00582187 0.00581554 0.00580921 0.00580243 0.00579632 0.00578977 0.00578322 0.00577667 0.00576967 0.0057634 0.00575671 0.00575002 0.00574333 0.00573621 0.00572987 0.00572311 0.00571635 0.0057096 0.00570241 0.00569606 0.00568931 0.00568256 0.00567581 0.00566864 0.00566236 0.00565568 0.005649 0.00564232 0.00563523 0.00562908 0.00562253 0.00561599 0.00560945 0.00560251 0.00559655 0.00559021 0.00558386 0.00557752 0.00557078 0.00556508 0.005559 0.00555291 0.00554683 0.00554036 0.00553496 0.00552919 0.00552342 0.00551764 0.0055115 0.00550647 0.00550106 0.00549565 0.00549023 0.00548445 0.00547981 0.0054748 0.00546979 0.00546478 0.00545941 0.00545521 0.00545062 0.00544604 0.00544145 0.00543649 0.00543271 0.00542854 0.00542438 0.00542021 0.00541568 0.00541229 0.00540848 0.00540467 0.00540086 0.00539665 0.00539346 0.00538982 0.00538618 0.00538253 0.00537848 0.00537507 0.00537115 0.00536724 0.00536333 0.00535893 0.00535403 0.0053483 0.00534258 0.00533686 0.00533035 0.00532157 0.00531237 0.00530317 0.00529396 0.00528427 0.00525814 0.0052265 0.00519485 0.0051632 0.00512667 0.00511519 0.00511784 0.0051205 0.00512316 0.00514878 0.00523239 0.00530843 0.0053878 0.00545078 0.0054964 0.00548937 0.00548554 0.00548171 0.00547791 0.00547638 0.00550326 0.00553095 0.00555864 0.00557832 0.00559928 0.00561322 0.00563207 0.00565095 0.00566983 0.00568417 0.00574706 0.00581207 0.00587709 0.0059421 0.00599861 0.00609005 0.00616616 0.00624227 0.00631839 0.00632353 0.0063089 0.00628952 0.00627015 0.00625077 0.00624089 0.00604003 0.00581847 0.0055969 0.00537534 0.00504796 0.00456796 0.00407407 0.00358018 0.00308629 0.00262219 0.00235241 0.00207509 0.00179778 0.00152046 0.00127311 0.0011745 0.00106946 0.000964414 0.000859373 0.00077371 0.000667779 0.000556291 0.000444802 0.000333313 0.000255307
-0.0319474 -0.0319665 -0.0319856 -0.0320047 -0.0320238 -0.0320429 -0.0327438 -0.0336214 -0.034404 -0.0351665 -0.0362248 -0.0372615 -0.0382519 -0.0392543 -0.0403137 -0.0412977 -0.0422589 -0.0432249 -0.0441655 -0.0451008 -0.0460067 -0.0469048 -0.0478108 -0.0487168 -0.0496219 -0.0505269 -0.0514187 -0.0523224 -0.0532311 -0.0541408 -0.0550612 -0.0559663 -0.0568786 -0.0577903 -0.0586998 -0.0596149 -0.0605162 -0.0614146 -0.0623142 -0.063214 -0.0641102 -0.0649912 -0.0658712 -0.0667508 -0.0676285 -0.0685043 -0.0693625 -0.0702182 -0.0710764 -0.0719352 -0.0727917 -0.0736257 -0.0744611 -0.075296 -0.0761283 -0.076962 -0.0777692 -0.0785746 -0.0793823 -0.0801906 -0.0809973 -0.081773 -0.0825502 -0.0833268 -0.0841012 -0.0848772 -0.085618 -0.086358 -0.0871003 -0.087843 -0.0885854 -0.0892878 -0.089993 -0.0906977 -0.0914003 -0.0921058 -0.0927671 -0.0934292 -0.0940934 -0.094758 -0.0954239 -0.0960407 -0.0966618 -0.0972825 -0.0979012 -0.098524 -0.099093 -0.099666 -0.100241 -0.100816 -0.101395 -0.101914 -0.102442 -0.102969 -0.103495 -0.10403 -0.104502 -0.10498 -0.105458 -0.105937 -0.106421 -0.106844 -0.107271 -0.107698 -0.108124 -0.108555 -0.108925 -0.109298 -0.109671 -0.110043 -0.110419 -0.110734 -0.11105 -0.111366 -0.111683 -0.112002 -0.112261 -0.112521 -0.112781 -0.11304 -0.1133 -0.113502 -0.113704 -0.113906 -0.114109 -0.114311 -0.114455 -0.114599 -0.114743 -0.114887 -0.115029 -0.115112 -0.115198 -0.115283 -0.115368 -0.115456 -0.11548 -0.115508 -0.115537 -0.115566 -0.115599 -0.115567 -0.115541 -0.115515 -0.115489 -0.11547 -0.115386 -0.115308 -0.115228 -0.115148 -0.115075 -0.114939 -0.114806 -0.114674 -0.114544 -0.114416 -0.11423 -0.114048 -0.113864 -0.113679 -0.113499 -0.113263 -0.113029 -0.112796 -0.112565 -0.112336 -0.112054 -0.111777 -0.111497 -0.111216 -0.11094 -0.110615 -0.11029 -0.109967 -0.109646 -0.109325 -0.10896 -0.108597 -0.108232 -0.107866 -0.107503 -0.1071 -0.106696 -0.106292 -0.10589 -0.105487 -0.105046 -0.104608 -0.104168 -0.103728 -0.103289 -0.102813 -0.10234 -0.101867 -0.101396 -0.100928 -0.100422 -0.0999237 -0.0994226 -0.0989209 -0.0984259 -0.0978968 -0.0973705 -0.0968448 -0.0963219 -0.0958017 -0.0952521 -0.0947073 -0.09416 -0.093612 -0.0930689 -0.0925004 -0.0919334 -0.0913668 -0.0908027 -0.0902396 -0.089655 -0.0890745 -0.0884916 -0.0879083 -0.0873288 -0.086731 -0.0861346 -0.0855387 -0.0849449 -0.0843523 -0.0837446 -0.0831407 -0.0825348 -0.0819283 -0.0813256 -0.0807107 -0.0800972 -0.0794841 -0.078873 -0.0782628 -0.0776437 -0.077028 -0.0764104 -0.0757925 -0.0751778 -0.0745567 -0.0739369 -0.0733175 -0.0726998 -0.0720831 -0.0714627 -0.0708455 -0.0702266 -0.0696075 -0.0689913 -0.0683737 -0.0677574 -0.0671414 -0.0665269 -0.0659133 -0.0653007 -0.0646908 -0.0640796 -0.0634681 -0.0628592 -0.0622532 -0.0616483 -0.0610437 -0.0604403 -0.0598379 -0.0592403 -0.0586451 -0.0580488 -0.0574523 -0.0568582 -0.0562704 -0.0556838 -0.0550974 -0.0545121 -0.0539276 -0.0533512 -0.052777 -0.0522019 -0.0516266 -0.0510534 -0.0504895 -0.0499267 -0.0493641 -0.0488022 -0.0482413 -0.047691 -0.0471426 -0.0465935 -0.0460443 -0.0454968 -0.044961 -0.0444263 -0.0438916 -0.0433575 -0.0428244 -0.0423038 -0.0417849 -0.0412654 -0.0407459 -0.0402279 -0.0397232 -0.0392195 -0.0387159 -0.0382127 -0.0377104 -0.0372221 -0.0367351 -0.0362479 -0.0357606 -0.0352745 -0.0348029 -0.0343324 -0.0338618 -0.0333915 -0.032922 -0.0324675 -0.0320141 -0.0315605 -0.0311069 -0.0306544 -0.0302169 -0.0297805 -0.0293441 -0.0289077 -0.0284722 -0.028052 -0.0276328 -0.0272135 -0.0267943 -0.026376 -0.0259729 -0.0255709 -0.0251688 -0.0247666 -0.0243653 -0.0239793 -0.0235943 -0.0232093 -0.0228243 -0.0224404 -0.0220713 -0.0217037 -0.021336 -0.0209682 -0.0206016 -0.0202496 -0.019899 -0.0195484 -0.019198 -0.0188486 -0.0185132 -0.0181793 -0.0178454 -0.0175114 -0.0171787 -0.0168601 -0.0165424 -0.0162246 -0.0159069 -0.0155902 -0.0152877 -0.0149858 -0.0146837 -0.0143816 -0.0140798 -0.0137933 -0.0135064 -0.0132197 -0.012933 -0.0126461 -0.0123748 -0.0121031 -0.0118314 -0.0115594 -0.0112871 -0.0110301 -0.0107727 -0.0105156 -0.0102586 -0.0100012 -0.00975838 -0.00951568 -0.0092729 -0.00902979 -0.00878687 -0.00855789 -0.00832854 -0.00809959 -0.00787074 -0.00764139 -0.00742571 -0.00721019 -0.00699456 -0.00677843 -0.00656256 -0.00635947 -0.00615608 -0.00595321 -0.00575046 -0.00554742 -0.00535644 -0.00516607 -0.00497558 -0.00478455 -0.00459406 -0.00441491 -0.00423604 -0.00405756 -0.00387917 -0.00370115 -0.00353314 -0.0033662 -0.00319921 -0.00303207 -0.00286574 -0.00270912 -0.00255301 -0.002397 -0.00224102 -0.00208569 -0.00193999 -0.00179441 -0.00164878 -0.00150291 -0.00135734 -0.00122193 -0.0010857 -0.000949853 -0.000814093 -0.000677572 -0.000551606 -0.000425205 -0.000298702 -0.000171748 -4.45066e-05 7.27658e-05 0.000190734 0.000308262 0.000425693 0.00054386 0.000652678 0.000761532 0.000870473 0.000979805 0.00108915 0.00118987 0.00129099 0.00139177 0.00149246 0.00159353 0.00168653 0.0017795 0.00187253 0.0019659 0.00205921 0.00214487 0.0022309 0.00231662 0.00240227 0.00248824 0.00256699 0.0026457 0.00272448 0.00280359 0.00288263 0.0029548 0.00302736 0.00309959 0.00317175 0.00324424 0.0033103 0.00337631 0.00344239 0.00350879 0.0035751 0.00363535 0.00369593 0.00375623 0.00381648 0.00387699 0.00393179 0.00398662 0.0040415 0.00409663 0.00415177 0.00420138 0.00425138 0.00430115 0.00435085 0.00440088 0.00444567 0.00449054 0.00453548 0.00458066 0.00462591 0.00466612 0.00470678 0.00474719 0.00478754 0.00482827 0.00486426 0.0049004 0.00493658 0.004973 0.00500954 0.00504154 0.005074 0.00510624 0.00513843 0.00517101 0.00519934 0.00522784 0.0052564 0.00528517 0.0053141 0.00533895 0.00536427 0.00538939 0.00541447 0.00543995 0.00546162 0.0054835 0.00550543 0.00552755 0.00554987 0.00556853 0.00558768 0.00560664 0.00562556 0.0056449 0.00566083 0.00567701 0.00569323 0.00570962 0.00572625 0.0057396 0.00575346 0.00576714 0.00578079 0.00579487 0.0058059 0.0058172 0.00582855 0.00584006 0.00585183 0.00586066 0.00587 0.0058792 0.00588835 0.00589796 0.00590483 0.00591201 0.00591922 0.00592658 0.00593424 0.00593926 0.0059448 0.00595021 0.00595558 0.00596143 0.00596481 0.00596854 0.0059723 0.00597618 0.00598041 0.00598225 0.00598463 0.00598689 0.00598913 0.00599185 0.00599235 0.00599322 0.00599412 0.00599513 0.00599652 0.00599573 0.00599551 0.00599518 0.00599481 0.00599496 0.00599308 0.00599162 0.00599019 0.00598886 0.00598795 0.00598508 0.00598277 0.00598035 0.00597791 0.00597599 0.00597226 0.00596895 0.00596565 0.00596246 0.00595968 0.00595516 0.0059512 0.00594714 0.00594307 0.0059395 0.00593434 0.0059296 0.00592489 0.00592026 0.00591606 0.00591031 0.00590512 0.00589985 0.00589456 0.00588979 0.00588358 0.00587783 0.00587209 0.00586643 0.00586122 0.00585461 0.00584856 0.00584244 0.00583631 0.00583072 0.00582382 0.00581739 0.00581098 0.00580464 0.00579877 0.00579163 0.00578507 0.00577845 0.00577181 0.00576573 0.00575846 0.00575169 0.00574493 0.00573823 0.00573203 0.00572468 0.00571791 0.00571109 0.00570426 0.00569799 0.00569066 0.00568384 0.00567703 0.00567027 0.00566403 0.00565675 0.00565006 0.00564333 0.00563658 0.00563041 0.00562329 0.00561669 0.0056101 0.00560355 0.00559754 0.00559059 0.00558424 0.00557786 0.00557147 0.00556566 0.00555899 0.00555286 0.00554675 0.00554065 0.00553513 0.00552875 0.00552297 0.00551717 0.00551137 0.00550616 0.00550017 0.00549474 0.00548932 0.0054839 0.00547909 0.00547347 0.00546846 0.00546345 0.00545845 0.00545405 0.00544888 0.00544434 0.00543978 0.0054352 0.00543127 0.0054265 0.00542235 0.00541826 0.0054142 0.00541074 0.00540637 0.00540278 0.00539915 0.00539536 0.00539239 0.00538822 0.00538463 0.0053814 0.00537826 0.0053757 0.00537137 0.00536856 0.00536556 0.00536179 0.00535951 0.00535419 0.00534894 0.00534595 0.00534349 0.00534105 0.00533201 0.00533028 0.00532736 0.00531943 0.00531839 0.00530407 0.0052795 0.005275 0.00527522 0.00526449 0.00522159 0.00523316 0.00524354 0.00524881 0.00531692 0.00541039 0.00547395 0.00553753 0.00557551 0.00552921 0.00550999 0.00550296 0.00549592 0.00548842 0.00549242 0.00550997 0.00552814 0.00554631 0.00555802 0.00556928 0.00557034 0.00557139 0.00557244 0.00557337 0.00557406 0.0055989 0.00562786 0.0056569 0.00568594 0.00565932 0.00569748 0.00576012 0.00582314 0.00588616 0.00596615 0.00618044 0.00626945 0.00635192 0.00642803 0.00632111 0.00635698 0.0063376 0.00632115 0.00631169 0.00625631 0.00620977 0.0059882 0.00576664 0.0055325 0.00503889 0.00469927 0.00420538 0.00371149 0.00321492 0.0025961 0.00241447 0.00213716 0.00185984 0.00158252 0.00124271 0.0012236 0.00111856 0.00101351 0.000908474 0.000751279 0.000715269 0.000603782 0.000492296 0.000380809 0.000206781