# vtk DataFile Version 2.0
sampleSurface
ASCII
DATASET POLYDATA
POINTS 14144 float
-4 2.4359e-17 0.213991 -5 -7.03332e-17 0.24832 -5 -8.78968e-17 1.19622 -4 0
1.15978 -3 3.30872e-24 1.09917 -3 2.12034e-17 0.618363 -3 6.61744e-24 0.144377
1.00049 2.71051e-19 0.0377466 1.032 0 0.0376088 1.03198 -2.76472e-18 0.00937487 1.00051
0 0.00937499 5 2.37371e-18 0.0807757 5.0625 0 0.0807864 5.0625 -2.32186e-18
0.01875 5 -7.88861e-31 0.01875 6 -4.59957e-19 0.0809059 6.0625 0 0.0809118
6.0625 -1.44624e-18 0.01875 6 -1.97215e-31 0.01875 7 -9.10076e-19 0.0809817 7.0625
0 0.0809867 7.0625 -7.45877e-19 0.01875 7 0 0.01875 8 2.16089e-18
0.0810315 8 0 0.143317 8.125 0 0.152582 8.125 -3.0713e-18 0.0282186
8 -7.88861e-31 0.01875 9 -3.36839e-18 0.322117 9 -7.14776e-18 0.569424 9.5
-1.00974e-28 0.605111 9.5 1.54025e-18 0.112989 9 0 0.075 11 0
0.22013 10 -1.00974e-28 0.144966 10 -1.07672e-17 0.635459 10 0 1.12676
11 0 1.19261 12 0 0.268044 12 0 1.23454 13
0 0.290282 13 -5.04871e-29 1.254 14 -2.52435e-29 0.29776 14 0
1.26054 15 -9.61216e-18 1.26203 15 0 0.299458 -5 -1.05512e-16 2.15667
-4 0 2.11862 -3 0 2.06503 -3 -3.42204e-17 1.58106 -1.00144
3.38813e-21 1.00095 -1.00156 2.6834e-18 1.06317 -0.939104 0 1.06315 -0.939024 0
1.00083 0.00102175 -1.35525e-20 1.00018 0.00157824 -1.3146e-18 1.01503 0.0193806 -5.42101e-20 1.01315
0.0168153 0 1.00027 5 0 1.01287 5 -2.48715e-18 1.07512 5.0625
0 1.07524 5.0625 0 1.01299 6 0 1.01429 6 3.11075e-18
1.07657 6.0625 0 1.07664 6.0625 0 1.01435 7 0 1.01514
7 -1.05712e-18 1.07746 7.0625 0 1.07751 7.0625 0 1.01518 8
-4.76227e-19 1.07803 8 -1.97215e-31 1.14036 8.125 0 1.14821 8.125 -1.57772e-30
1.02371 8 -3.9443e-31 1.0157 9 9.89212e-18 1.312 9 -1.17997e-17 1.55979
9.5 -5.04871e-29 1.59144 9.5 0 1.09792 9 0 1.06435 10
-1.40371e-17 1.61778 10 -1.00974e-28 2.10872 11 0 2.1651 12 -5.04871e-29
2.20103 13 0 2.21771 14 2.52435e-29 2.22332 15 2.88049e-17 2.22459
-5 5.16988e-26 2.5257 -4.99992 -5.07475e-22 3.13073 -4.00007 0 3.09448 -3.00072
6.77626e-21 3.04721 -3.00013 -5.74204e-18 2.55367 -5 0 3.13073 1.00096 2.71051e-20
2.00453 1.00095 -5.55654e-18 2.06706 1.06354 0 2.06709 1.06354 -2.71051e-20 2.00457
4.0625 0 2.06715 4.05722 0 2.07057 4.0625 0 2.07058 5
-3.9443e-31 2.01012 5 2.08749e-18 2.07242 5.0625 0 2.07251 5.0625 0
2.0102 6 0 2.01137 6 -2.47753e-18 2.0737 6.0625 -9.86076e-32 2.07378
6.0625 0 2.01144 7 -1.2326e-32 2.01243 7 2.62598e-18 2.07479 7.0625
0 2.07485 7.0625 0 2.01249 8 1.04356e-18 2.08227 8 1.97215e-31
2.14458 8.125 0 2.14473 8.125 0 2.02011 8 0 2.01997
9 6.90882e-18 2.30391 9 -3.1382e-18 2.55156 9.5 -1.00974e-28 2.57778 9.5
0 2.08482 9 -2.52435e-29 2.05574 10 -1.30369e-17 2.59966 10 0
3.0906 11 0 3.13758 12 0 3.16753 13 0 3.18143
14 0 3.1861 15 2.34283e-17 3.18716 -5 0 3.13082 -5
-2.8246e-17 4.11557 -4.00039 0 4.08378 -3.0018 -5.42101e-20 4.04421 -3.00113 -5.96311e-18
3.54412 -2 0 3.5 -2 -5.16988e-26 3.28376 -2 0 3.5
1.25056 1.35525e-20 3.00462 1.15858 0 3.00379 1.14482 0 3.25366 1.25048
-1.35525e-20 3.25461 3 0 3 3 -1.28799e-17 3.25 3.25 0
3.25 3.25 0 3 4 0 3 4 -1.89592e-18 3.25
4.00002 0 3.25 4 1.29247e-26 3 5 3.23117e-27 3.00777 5
4.56496e-18 3.25741 5.25 0 3.25778 5.25 3.23117e-27 3.00815 6 8.07794e-28
3.00926 6 -8.18032e-18 3.25887 6.25 0 3.2592 6.25 0 3.00959
7 4.03897e-28 3.0105 7 -1.44313e-18 3.26012 7.25 0 3.26039 7.25
0 3.01077 8 0 3.01729 8 9.51297e-18 3.26675 8.25 -1.00974e-28
3.28251 8.25 0 3.03422 9 -1.13316e-17 3.54219 9.5 2.01948e-28 3.56373
9.5 0 3.07075 9 0 3.04688 10 1.44621e-17 3.58154 10
0 4.07248 11 0 4.11006 12 0 4.13402 13 0
4.14514 14 0 4.14888 15 -2.58351e-17 4.14973 -5 7.05274e-17 5.09312
-3.99993 0 5.08025 -3.00007 2.1684e-19 5.04778 -2.00009 1.35525e-20 5.00153 -2.00038
-3.91939e-17 4.50134 -2.00045 0 4.00114 -2.50021 -5.28549e-18 4.00124 2.00133 2.71051e-20
4.00354 2.001 2.18196e-17 4.50355 2.5 2.06795e-25 4.5 2.5 0 4
3 0 4 3 -3.80475e-17 4.5 3.5 1.03398e-25 4.5 3.5
0 4 4 -1.03398e-25 4 4 -4.06264e-17 4.5 4.5 0
4.5 4.5 -5.16988e-26 4.49997 4.00003 1.03398e-25 4 6 1.29247e-26 4.00805
6 0 4.00873 6.49942 -6.72084e-25 4.50825 6.5 0 4.50825 6.5
0 4.00867 7 0 4.00923 7 -1.07652e-17 4.5082 7.5 0
4.50825 7.5 0 4.00941 8 0 4.01411 8 8.79829e-18 4.51234
8.5 0 4.52411 8.5 0 4.0275 9.5 -4.03897e-28 4.05671 9
0 4.0375 9 -1.14067e-17 4.53281 9 0 5.04224 10 0
5.05436 11 -4.03897e-28 5.08255 12 0 5.10052 13 -1.00974e-28 5.10886
14 0 5.11166 15 -5.02169e-17 5.1123 -5 5.94956e-18 6.06208 -3.9997
-1.0842e-19 6.05349 -2.99997 -1.35525e-20 6.0012 -1.99997 0 6.00128 -0.999976 5.33156e-17
5.00167 -1.50007 -1.58565e-17 5.00158 -0.999953 0 6.00136 6.79777e-05 -7.72494e-18 5.00191
-0.49994 -3.70797e-17 5.00179 5.0325e-05 0 6.0014 1.00008 2.57769e-17 5.00203 0.500073
-1.10318e-17 5.00204 1.00007 0 6.0014 2.0004 -1.35525e-20 5.74227 1.69151 -1.35525e-20
5.00239 1.50013 -4.32868e-17 5.00186 2.00025 0 6.00134 2.99998 9.42159e-22 6
6.00005 5.29396e-23 5.00703 5.50018 2.11758e-22 5.00709 5.38228 2.11758e-22 5.00695 6.00006
0 5.03909 7 0 5.00703 6.5 -2.46811e-17 5.00709 6.96544 -7.41154e-22
6.00469 7.00005 -5.29396e-23 6.00469 8 2.81435e-24 5.02081 7.49917 1.22785e-25 5.00709
8.00001 -6.61744e-24 6.01366 8.99969 3.26672e-24 6.02817 2.00083 -2.71051e-20 5.00325 3
2.06795e-25 6 3 -1.58161e-18 5 2.5 0 5 4 0
6 4 -3.39991e-17 5 3.5 1.03398e-25 5 5.0014 0 5.00651
4.5 0 5 5 5.16988e-26 6 6.00046 0 6.00466 8
0 5.02048 7.5 0 5.00709 8.5 0 5.02072 9 3.23117e-27
6.02817 10 -1.61559e-27 6.03624 11 8.07794e-28 6.05503 12 -4.03897e-28 6.06701
13 0 6.07257 14 0 6.07444 15 3.70132e-17 6.07486 -5
-3.24312e-17 7.03104 -3.99982 0 7.02674 -2.99998 0 7.00061 -1.99998 6.77626e-21
7.00065 -0.999976 0 7.00068 2.48667e-05 6.77626e-21 7.0007 1.00003 -6.77626e-21 7.0007
2.00006 -6.77626e-21 7.00068 2.60139 0 7.00101 7.00005 0 6.16302 7.98805
3.30872e-24 7.00678 8 0 7.00683 8.99921 0 7.01409 3.00043 0
7.00122 4 0 7 5 0 7 6.00035 -6.77626e-21 7.00232
7.00003 0 7.00234 9 0 7.01409 10 0 7.01812 11
0 7.02752 12 0 7.03351 13 0 7.03629 14 0
7.03722 15 2.98328e-17 7.03743 -4 -7.90671e-21 8 -5 -1.84332e-21 7.99999
-3 6.79012e-22 7.99999 -2 8.81361e-22 7.99999 -1 -2.28726e-21 7.99999 7.32374e-09
8.87565e-22 7.99999 1 2.82544e-21 7.99998 2 2.41806e-21 7.99998 8 -1.70606e-24
7.99828 -4 0 8 -5 -5.16988e-26 8 -3 0 8
-2 -1.03398e-25 8 -1 0 8 6.95393e-09 0 8 1
0 8 2 0 8 3 -1.03398e-25 8 4 0
8 5 0 8 6 0 8 7 0 8
8 6.46235e-27 8 9 0 8 10 0 8 11
8.07794e-28 8 12 4.03897e-28 8 13 0 8 14 0
8 15 -5.04871e-29 8 -0.999964 1.05879e-22 0.01875 -0.999962 2.11758e-22 0.0792239
-0.937452 -2.11758e-22 0.0789879 -0.937452 -7.67624e-19 0.01875 -0.0102783 0 0.985301 -0.0157641
-6.77626e-21 0.985342 -0.0153844 0 0.990908 1.99923 1.13841e-18 0.0752478 1.99924 0
0.0183062 1.93651 -3.82181e-18 0.01719 1.93651 -1.35525e-20 0.072745 1.93761 -1.36881e-18 1.0004
2.00009 0 1.00025 2.00004 0 0.937788 1.93753 -2.71051e-20 0.937954 -0.93899
-3.38813e-21 0.938435 -1.00144 1.69407e-21 0.938476 0.000497998 -7.04731e-19 0.985218 -0.0147548 -6.77626e-21
1.00012 0.969069 -2.98156e-18 0.009375 0.969041 2.71051e-20 0.0378507 0.0157615 0 0.986027
-0.00102467 -2.20906e-18 1.93926 -0.000889311 0 2.00183 0.0617038 0 2.00198 0.0615898
0 1.93943 2.00014 3.97089e-18 1.06267 1.93771 0 1.06275 2 0
1.99999 2 -1.05879e-22 1.93749 1.9375 0 1.93749 1.9375 1.8036e-18 1.99999
1.00094 -4.03865e-18 1.94198 0.9383 0 1.94194 0.93837 1.35525e-20 2.00449 1.06352
0 1.94204 2.06193 -1.35525e-20 0.0765379 2.06193 -4.68917e-18 0.0186528 3 -1.81039e-18
0.0799561 3 1.32349e-23 0.01875 2.9375 1.22555e-18 0.01875 2.9375 0 0.079892
2.06256 -6.77626e-21 1.00015 2.06253 -6.77626e-21 0.937681 2.9375 -2.42535e-18 1.00249 3
0 1.00322 3 -6.61744e-24 0.941243 2.9375 0 0.940625 0.50047 6.77626e-21
0.027037 0.50044 -6.77626e-21 0.00937499 0.469159 0 0.00937489 0.469163 0 0.011084
-0.0309658 0 1.00178 -0.0288823 0 1.00037 -0.0311024 1.69407e-21 1.0004 -1
2.65061e-18 1.9375 -1 0 2 -0.9375 -8.27181e-25 2 -0.9375 0
1.9375 -0.0635166 5.74627e-18 2.00167 -0.0635912 0 1.93911 2.06259 0 1.06261
3 -3.76144e-18 1.06544 2.93751 -1.32349e-23 1.06468 2.0625 0 2 2.0625
5.29396e-23 1.93749 3 0 2 3 0 1.9375 2.9375 2.06795e-25
1.9375 2.9375 -5.82667e-18 2 -0.0282619 0 1.029 0.00353532 0 1.02858
0.000751005 5.29396e-23 1.43704 0.00111654 0 1.43671 0.000760055 0 1.43671 0.000285858
2.71051e-20 0.498141 0.000156034 0 0.484128 -0.0155977 0 0.48402 -0.0152721 7.86047e-19
0.496509 -0.501601 -3.38813e-21 0.500645 -0.439154 -6.77626e-21 0.500755 -0.439077 -1.35525e-20 0.469314
-0.439023 1.35525e-20 0.437969 -0.501413 1.86347e-18 0.43787 -0.501826 0 1.00057 -0.439211
0 1.00054 -0.439163 -3.38813e-21 0.937938 -0.501777 3.66935e-18 0.937998 -0.501723 1.69407e-21
0.563398 -0.439157 -3.38813e-21 0.563487 0.500489 -3.38813e-21 0.0380538 0.469222 6.77626e-21 0.038325
0.0160838 -1.6263e-18 0.498552 0.0160288 5.42101e-20 0.483976 0.486228 0 0.487123 0.491214
-1.0842e-19 0.502479 0.492708 5.42101e-20 0.504765 0.50055 0 0.496218 0.507957 0
0.037948 1.00164 0 0.502496 1.00002 -1.0842e-19 0.486158 0.981588 -5.42101e-20 0.484933
0.982133 1.0842e-19 0.488709 0.988978 0 0.498108 0.500602 0 0.984593 0.500842
1.35525e-20 0.98278 0.493365 -1.35525e-20 0.983045 0.510209 0 0.999714 0.515104 -5.42101e-20
0.998796 0.51601 1.35525e-20 0.981869 1.01493 0 0.501977 1.01456 0 0.487268
1.93852 7.96889e-18 0.50049 2.00137 -1.35525e-20 0.500497 2.00112 -1.35525e-20 0.437781 1.93848
0 0.437755 1.00241 1.0842e-18 0.515574 1.01421 5.42101e-20 0.514355 1.967 1.69407e-21
0.563175 2.00134 0 0.549347 1.93851 0 0.563152 -0.499479 1.21973e-19 0.0738711
-0.43682 -1.69407e-21 0.0700973 -0.436806 -1.79793e-18 0.0140688 -0.499477 2.11758e-22 0.0169442 0.531691
2.24972e-18 0.009375 0.531738 0 0.0376102 0.982897 1.0842e-19 0.495945 0.485506 0
0.983329 0.485307 -8.13152e-19 1.0033 0.498394 0 1.00212 2.00133 -3.38813e-21 0.563203
-0.00096927 0 1.5006 0.0614961 0 1.50042 0.061972 0 1.43772 0.500021
-2.71051e-20 1.50241 0.499988 0 1.47142 0.46837 0 1.47148 0.468409 -3.52366e-19
1.50251 0.504906 0 1.01011 0.511229 -1.0842e-19 1.01789 0.531565 0 1.50217
[...]
POINT_DATA 14144
FIELD attributes 1
U 3 14144 float
20.1054 -0.000904155 -0.017556 20 0 0 20 0 0 20.0676 -0.000411757
-0.0490435 20.0405 -0.000470288 0.0782804 20.0797 -0.000532835 0.0618128 20.0997 -0.000456893 0.0222896
19.6999 -0.120994 0.0602477 19.2062 -0.107339 0.0190511 19.2494 -0.106372 0.00514241 19.7146
-0.118591 0.0219149 19.9558 -0.000176719 -0.00128364 19.9573 -0.000174417 -0.00122541 19.9573 -0.000174357
-0.000421624 19.9557 -0.000176654 -0.000441695 19.9757 -0.000135473 -0.000762956 19.9768 -0.00013298 -0.000751701
19.9768 -0.000132956 -0.000258395 19.9757 -0.000135449 -0.000262272 19.9975 -9.86508e-05 -0.000834433 19.9994
-9.65736e-05 -0.000866317 19.9994 -9.65504e-05 -0.000298173 19.9975 -9.86286e-05 -0.000287086 20.0603 -6.8005e-05
-0.0219478 20.0386 -6.78094e-05 -0.0198076 20.0608 -6.43903e-05 -0.0244515 20.0738 -6.43503e-05 -0.00691731
20.0691 -6.77542e-05 -0.00781825 20.0756 -5.36082e-05 -0.0227677 20.0455 -4.92395e-05 -0.0195118 20.0678
-3.76665e-05 -0.0204905 20.0805 -4.89572e-05 -0.00585274 20.0844 -4.98376e-05 -0.00685652 20.0161 -3.66073e-05
0.000736726 20.0681 -4.48548e-05 -0.00375128 20.0645 -3.42906e-05 -0.0194688 20.0289 -1.0647e-05 -0.0098191
20.0178 -3.84872e-05 0.00466891 19.9998 -2.16037e-05 0.00110651 19.9973 -2.07159e-05 0.00328604 19.9963
-1.19933e-05 0.000362442 19.9944 -1.13996e-05 0.000853984 19.9921 -5.35648e-06 0.00342695 19.9942 -5.12312e-06
0.00559889 19.9941 -2.43297e-06 0.0112496 19.988 -2.53289e-06 0.00668634 20 0 0
20.0224 0.000133602 -0.074603 20.034 -0.000293597 0.087416 20.0359 -0.000432433 0.084634 19.6882
-0.00100978 0.213068 19.7052 -0.000882693 0.224142 19.6716 -0.000799669 0.242784 19.6451 -0.000828768
0.233344 13.8887 0.337905 7.91315 14.428 0.352503 7.6014 14.2081 0.379118 8.33395
13.5588 0.427495 8.92456 19.9614 -0.00018365 -0.0144595 19.962 -0.000184101 -0.0151476 19.9631
-0.000181434 -0.0145148 19.9625 -0.000180942 -0.01385 19.9769 -0.000139772 -0.00887867 19.977 -0.00014048
-0.00933544 19.978 -0.00013797 -0.00920189 19.9778 -0.000137244 -0.00875106 19.9958 -0.000103201 -0.00901871
19.9957 -0.000103941 -0.00947288 19.9973 -0.000102006 -0.00962126 19.9974 -0.000101233 -0.00916421 20.0322
-7.82104e-05 -0.0132004 20.0288 -7.4722e-05 -0.0126682 20.0347 -7.54464e-05 -0.0119715 20.0353 -7.41697e-05
-0.011385 20.0329 -7.69338e-05 -0.0116027 20.0457 -4.47112e-05 -0.0104149 20.0479 -4.4784e-05 -0.00880672
20.0462 -3.67217e-05 -0.00299372 20.0337 -9.10827e-06 -0.0155085 20.0445 -4.39009e-05 -0.0122591 20.0399
-2.98382e-05 0.000910321 20.0401 -5.94026e-05 0.00451833 20.0066 -2.42128e-05 0.0094435 19.9896 -1.67518e-05
0.00237853 19.9911 -1.00032e-05 -0.000267732 19.9937 -4.64076e-06 0.00526116 19.9947 -2.23086e-06 0.0113876
20 0 0 20 -1.56592e-08 -5.59211e-06 19.9692 -0.00018637 -0.0665559 20.018
-0.000457529 0.12994 20.0229 -0.000315263 0.0971665 20 0 0 20.3703 -0.00445132
-0.171124 20.3319 -0.00384279 -0.138405 20.3105 -0.00362898 -0.172029 20.3436 -0.00417423 -0.20979
19.9709 -0.000153943 -0.0411683 19.971 -0.000153098 -0.0413312 19.971 -0.000153611 -0.0411588 19.9734
-0.000203682 -0.0217254 19.9741 -0.000207724 -0.0219182 19.9744 -0.000206944 -0.0211542 19.9736 -0.000202766
-0.0209593 19.9797 -0.00016539 -0.01408 19.9799 -0.00016859 -0.0142316 19.9804 -0.000165669 -0.0140353
19.9803 -0.000162506 -0.013887 19.9921 -0.000124818 -0.0151759 19.9917 -0.000127177 -0.015402 19.993
-0.000125396 -0.0158545 19.9934 -0.000123018 -0.0156003 20.0336 -8.33452e-05 -0.0233131 20.0373 -0.000114411
-0.0246711 20.0412 -0.000116893 -0.0220177 20.0396 -0.000103779 -0.0200283 20.0331 -9.7821e-05 -0.0224401
20.0635 -9.21693e-05 -0.0142282 20.0631 -9.07688e-05 -0.046661 20.0233 -6.85468e-05 -0.00791112 20.0515
-6.9244e-05 0.00407363 20.0566 -6.38709e-05 -0.00666534 20.0376 -5.67696e-05 -0.00475573 20.0358 -4.02133e-05
-0.0423999 19.9748 -1.87934e-05 -0.00177177 19.9828 -1.39922e-05 -0.00425418 19.9902 -8.79634e-06 -0.00337793
19.9944 -4.16901e-06 0.0033612 19.9959 -2.02172e-06 0.00935234 20 0 0 20
0 0 19.9458 -9.66444e-05 -0.0291119 19.8544 -0.000366518 0.080119 19.9046 -0.00043803
0.126246 20.002 -0.000801753 0.105541 19.9559 -0.000401611 0.105103 20.002 -0.000801754 0.105541
20.0831 -0.000712654 -0.0245368 20.0861 -0.000742424 -0.0156623 20.0671 -0.000175833 -0.00448214 20.065
0.000427171 -0.0118955 20.0061 -4.21211e-05 -0.0504774 20.0094 -2.72747e-05 -0.0407649 20.0052 4.96596e-05
-0.0381077 20.0017 4.30331e-05 -0.0457909 19.9927 -6.78499e-05 -0.0334865 19.9957 0.000906691 -0.030274
19.9957 0.000906562 -0.0302738 19.9927 -6.78513e-05 -0.0334864 19.9851 -0.000302046 -0.0208579 19.9874
-0.000495107 -0.0193876 19.9863 -0.000114849 -0.0173104 19.9842 -0.000279545 -0.0184936 19.9835 -0.00023128
-0.0135588 19.9846 -0.000343092 -0.01254 19.9844 -0.000132519 -0.0116346 19.9837 -0.000211072 -0.0127136
19.9853 -0.000168271 -0.0133592 19.9842 -0.000227167 -0.0114623 19.9841 -0.000112511 -0.012606 19.9862
-0.000156062 -0.0150376 20.0071 -0.000154014 -0.0255696 19.9725 -0.000243167 -0.0294292 19.937 -6.35218e-05
-0.0627257 20.0458 -0.000170414 -0.0683478 20.0074 -6.79023e-05 -0.0287145 19.9706 -5.26705e-05 -0.0425073
20.0326 -5.87446e-05 -0.0529546 19.8999 -5.65704e-05 -0.0225869 19.9258 -4.04854e-05 -0.0471796 19.8811
-3.53889e-05 -0.01182 19.9738 -2.075e-05 -0.0267314 19.9868 -1.34448e-05 -0.013108 19.9935 -8.13605e-06
-0.00668469 19.9969 -3.8308e-06 0.00126437 19.9982 -1.85695e-06 0.00693151 20 0 0
19.971 0.000938055 -0.00870498 19.9756 -0.00043176 0.0634812 19.886 -0.000432819 0.0331278 19.9146
-0.000676415 0.0907464 20.0244 -0.000881894 0.107336 19.8726 -0.000723055 0.064021 20.0254 -9.76029e-05
-0.0150002 20.019 0.000145535 -0.00739211 20.0151 -0.000143883 -0.0115273 20.0185 -0.00010934 -0.0198859
20.0118 -7.25351e-05 -0.0215986 20.0104 -0.000324462 -0.0136093 20.006 -4.67196e-05 -0.0144582 20.006
-5.94096e-05 -0.0213753 20.0013 -0.00012662 -0.0197528 20.0033 0.000294853 -0.0135106 19.9993 -0.00114634
-0.0116509 19.9993 -0.00114629 -0.0116512 20.0013 -0.000126629 -0.0197526 19.9881 -0.000238446 -0.00805779
19.9881 -0.000239063 -0.00805266 19.9878 4.09133e-05 -0.00215032 19.9878 4.1761e-05 -0.00214787 19.986
-0.000199882 -0.00602294 19.984 -0.000171044 -0.00483237 19.9843 -0.000264712 0.000673719 19.9808 -0.000141004
0.00130422 19.9841 -0.000142858 -0.00493937 20.001 -0.000114328 0.00293797 19.9721 -0.000107368 -7.03025e-05
19.9425 -7.95745e-05 -0.0355855 20.0459 -8.53894e-05 -0.0377658 19.8871 -4.79941e-05 0.00480302 20.0295
-6.41991e-05 -0.0430064 19.9265 -6.17246e-05 -0.0448094 19.9037 -5.24054e-05 0.00243655 20.0099 -3.13818e-05
-0.0191758 20.0093 -1.99453e-05 -0.0297704 20.001 -1.27508e-05 -0.0149441 20.0001 -7.62707e-06 -0.00748415
20.0008 -3.57501e-06 -4.271e-05 20.0014 -1.7307e-06 0.00476634 20 0 0 19.9817
0.00155427 -0.00794993 19.9981 -0.000416766 0.0426505 20.0154 -0.00019767 0.0110448 19.9702 -0.000226528
0.0149029 19.8701 -0.000377739 0.0260024 20.0075 -9.35709e-05 -0.00736039 20.0024 -0.000108921 0.016245
19.9897 -0.000203306 0.0219745 20.0024 -8.37793e-05 0.00488044 20.0131 0.000145729 0.00661308 20.0103
-0.000219928 0.0131419 20.0066 -3.91832e-05 0.00297634 20.0096 8.59534e-05 -0.0016196 20.0148 0.000309098
-0.00091185 20.0154 0.000330049 0.000793074 20.008 1.95345e-05 -0.000901629 20.0069 3.95068e-05 -0.00354623
19.9931 -0.000834425 -0.00130408 19.9954 0.0008062 -0.00350082 19.9959 0.00060512 -0.00436539 19.9933
-0.000812708 -0.00122364 19.9876 -0.000277293 0.00549956 19.9903 0.000184788 0.000634312 19.9995 -9.71945e-05
0.00765518 19.9996 -9.49894e-05 0.00788673 19.969 -9.04714e-05 0.0192667 19.9808 -0.000125753 0.00803892
20.0138 -6.27818e-05 0.0273404 20.0339 -4.24492e-05 0.0128512 20.014 0.000275038 -0.00366753 20.0069
3.95073e-05 -0.00354629 20.0089 -0.000347362 -0.00860908 20.0125 -0.000122287 -0.00740315 20.0043 -6.72128e-05
-0.00459967 20.0042 0.000436474 -0.00896684 20.0058 1.7623e-05 -0.0102004 19.9976 -4.45143e-05 -0.00715858
20.0008 -0.00166861 -0.00928013 20.0013 -0.000180792 -0.0029879 19.9992 -0.000158687 0.00119875 19.969
-9.04806e-05 0.019264 19.9808 -0.000125502 0.00804313 19.8759 -7.10807e-05 0.00826695 20.0339 -4.24428e-05
0.0128466 20.0312 -2.81267e-05 -0.017844 20.0161 -1.85801e-05 -0.0160512 20.0082 -1.20173e-05 -0.0101682
20.0049 -7.20647e-06 -0.00563822 20.0042 -3.37953e-06 -0.000403277 20.0043 -1.63632e-06 0.00298952 20
0 0 19.9832 0.000954826 -0.00523285 19.9898 -0.00043094 0.0164482 20.0016 -0.000251978
0.00651095 20.0037 -0.000150628 -0.000286156 20.0037 -0.00010289 0.00129789 20.0054 -6.78163e-05 0.00100715
20.0063 -4.07005e-05 -0.000218414 20.006 -3.62807e-05 -0.000833234 20.0006 -9.16082e-05 0.00739539 20.014
-5.27968e-05 0.00953278 20.0141 -5.25441e-05 0.00959014 20.0226 -3.71535e-05 0.00463273 20.0058 -3.33471e-05
-0.00124122 20.0046 -6.42985e-05 -0.00155227 20.0034 -0.000106965 -0.000713357 20.0034 -0.000104335 0.00136084
20.0062 -7.36846e-05 0.00479077 20.0226 -3.71412e-05 0.00462879 20.0225 -2.57489e-05 -0.0049674 20.0164
-1.749e-05 -0.00638085 20.0109 -1.14675e-05 -0.00476398 20.0075 -6.9177e-06 -0.00287128 20.0062 -3.25187e-06
-0.000274938 20.0062 -1.57594e-06 0.00145083 19.9828 0.000260872 -4.81464e-09 19.9929 0.00052184 0
19.9873 -0.000428931 1.98382e-07 19.9981 -0.000262796 7.42077e-08 20.0022 -0.00016427 -3.76562e-09 20.0037
-0.000110737 1.93076e-08 20.0051 -7.71267e-05 1.60329e-08 20.0058 -5.53327e-05 -4.36033e-09 20.0139 -4.90722e-05
1.66378e-05 19.9828 0.000260872 0 19.9929 0.000521843 0 19.9873 -0.000428931 0
19.9981 -0.000262796 0 20.0022 -0.00016427 0 20.0037 -0.000110737 0 20.0051
-7.71269e-05 0 20.0058 -5.5333e-05 0 20.0056 -4.90251e-05 0 20.0047 -6.58953e-05
0 20.0041 -8.94952e-05 0 20.0047 -8.78042e-05 0 20.0078 -6.71836e-05 0
20.0139 -4.90662e-05 0 20.0198 -3.53485e-05 0 20.0202 -2.48986e-05 0 20.0161
-1.709e-05 0 20.0116 -1.12673e-05 0 20.0083 -6.81498e-06 0 20.0069 -3.20726e-06
0 20.0068 -1.55496e-06 0.000361961 19.6415 -0.000127468 0.0120406 19.6242 -0.000129655 0.0318212
19.574 -0.000158839 0.0271272 19.5858 -0.000163579 0.00975998 13.2826 0.343855 7.75719 13.3993
0.328992 7.45004 13.5828 0.305489 7.29429 18.1678 0.0302326 0.0905657 18.2188 0.0292286
0.0359819 17.8846 0.0325219 0.077394 17.7891 0.0353226 0.206575 18.2671 -0.000812862 -1.13597
18.69 0.0108024 -0.876103 18.5072 0.0250436 -0.755834 17.9794 0.0192736 -0.902322 19.6318
-0.000617169 0.222308 19.6721 -0.000919215 0.207565 13.054 0.373423 8.35969 13.8867 0.266161
7.03583 20.1068 -0.127571 0.0257216 20.1057 -0.130977 0.0669176 12.6408 0.484899 9.47354
20.1198 -0.00256179 0.459898 20.1241 -0.00246658 0.405896 20.1541 -0.00270459 0.406504 20.1546
-0.00284377 0.463862 18.9361 0.00348584 -0.935928 18.695 -0.00579376 -1.23724 19.9998 -0.00148805
-0.253523 19.9875 -0.00159751 -0.277353 19.9985 -0.00177511 -0.290834 20.0106 -0.00164116 -0.264625
20.4149 -0.00519103 -0.212635 20.4434 -0.00568605 -0.160326 20.3931 -0.00473502 -0.126917 20.3815
-0.00480739 -0.25734 18.4629 0.0256482 0.0336235 18.4882 0.0249253 0.0141613 19.7213 0.00116037
-0.0108272 19.7208 0.00116196 -0.00374284 19.6955 0.00144923 -0.004049 19.6961 0.0014482 -0.0117112
18.9536 0.0132925 -0.707283 18.8248 0.0232637 -0.638768 19.7929 0.000566076 -0.125833 19.8088
0.0004256 -0.11514 19.7988 0.00051579 -0.110984 19.7818 0.000680096 -0.121317 21.3662 -0.0427063
-0.202875 21.3518 -0.0426501 -0.0960314 21.0775 -0.0324849 -0.110692 21.0786 -0.0324847 -0.122387
14.3471 0.237985 6.29939 14.2288 0.24522 6.42428 14.2824 0.241971 6.32816 19.9729
-0.00111561 0.220258 19.9851 -0.00103902 0.213897 19.982 -0.00109346 0.225186 19.9696 -0.00115601
0.230774 20.0967 -0.0022757 0.401299 20.0887 -0.00233854 0.451458 19.1133 0.00687391 -0.744564
19.819 0.000338626 -0.118647 19.8045 0.000457552 -0.12956 19.9904 -0.00134357 -0.242184 19.978
-0.0014305 -0.26376 19.9546 -0.000302298 -0.103911 19.9483 -0.00030258 -0.107359 19.9472 -0.000327222
-0.114104 19.9539 -0.000328709 -0.110164 15.6265 0.157025 5.73061 15.0684 0.265336 6.94189
19.7062 0.00525689 1.4613 19.7058 0.00528464 1.46323 19.7056 0.00527387 1.46243 0
0 0 13.5919 -0.0451294 0.0893233 13.525 0.0029535 1.03647 0 0
0 18.5417 0.00197631 0.218751 18.0595 0.00365196 0.306089 18.0042 0.00241677 0.373898
18.0617 -0.00019871 0.344816 18.4673 0.000864249 0.149417 18.966 0.00544241 0.554291 18.7413
0.00849408 0.670399 18.6105 0.0097461 0.58037 18.8733 0.00617061 0.48928 18.6713 0.00317172
0.241206 18.3515 0.00459445 0.302244 21.3753 -0.0427322 -0.26953 21.0963 -0.0324542 -0.308827
0.280866 0.0163306 -0.0132474 13.559 -0.123079 -0.811194 1.16117 0.0901302 -0.974695 0
0 0 0 0 0 2.04321 0.135833 -1.91966 21.4268 -0.0459248
-0.257587 0 0 0 12.9166 -0.288635 6.07524 11.3578 -0.180088 3.16143
7.56943 -0.12002 2.10693 0 0 0 19.4994 -0.322476 3.52774 21.5364
-0.357596 3.89661 21.3508 -0.122208 2.09451 11.2872 -0.994354 7.50143 15.9237 -1.38807
10.592 19.127 -0.68109 6.39268 8.59399 -0.155377 6.98542 12.0772 -0.228944 6.50072
17.5972 0.137976 -0.587981 18.0916 0.0956018 -0.407541 17.9548 0.0789163 -0.333524 17.3269
0.107058 -0.485199 0 0 0 3.86958 -0.000619702 5.39726 18.0364 0.137278
-0.527571 18.1996 0.106249 -0.434314 17.8755 0.160544 -0.59866 18.7935 -0.000988315 -0.117558
18.5356 -0.0013224 -0.17373 18.6065 -0.00121385 -0.0630904 18.8347 -0.000964698 -0.0407079 21.563
-0.0554422 -0.0780898 21.5911 -0.056017 -0.21959 0 0 0 21.1539 0.127095
0.204988 21.8049 0.998426 -4.19879 0 0 0 18.2303 0.109279 -0.441894
19.8283 0.0020806 1.2467 19.8876 0.00300328 1.35646 19.7525 0.00708953 1.60061 21.5072
-0.0588116 0.855388 21.8192 -0.0654435 0.841638 21.5595 -0.0790731 1.40054 21.2961 -0.0754979
1.16942 5.06754 -0.885584 6.33706 9.88495 -1.69086 12.3702 21.3367 -0.0433649 0.542101
21.5728 -0.0450177 0.307234 18.7754 0.0476323 1.07029 19.086 0.0211203 1.09437 19.0297
0.0361051 1.54067 19.8052 -0.00239004 -0.518375 19.7564 -0.00240779 -0.569702 19.7653 -0.00319839
-0.624548 19.8141 -0.00301994 -0.563581 19.7978 -0.0080859 -1.03535 19.9003 -0.00719193 -0.927978
19.8868 -0.00680519 -0.849259 19.8084 -0.00773204 -0.936702 21.3836 0.00560953 -1.84475 21.7007
-0.0132457 -1.43398 21.3371 -0.0171078 -1.03782 21.1264 -0.00562097 -1.30978 18.7502 0.0497898
1.06832 19.1888 0.0872359 1.73958 18.7154 0.0516316 1.59574 17.9117 -0.0314379 0.300954
17.7318 -0.035738 0.399983 17.5325 -0.0396203 1.15063 17.7293 -0.0347704 0.850976 16.0211
-0.189224 -3.87789 16.4939 -0.19338 -2.26514 16.5612 -0.00454082 -1.37735 16.5029 -0.0487272
-1.17281 15.7063 -0.0346867 -3.63851 15.3918 0.0664598 -5.15973 19.1133 0.0303102 2.56416
19.1998 0.0371067 2.84068 18.795 0.0692948 3.74327 18.4217 0.131694 3.58489 18.4614
0.00207752 3.33751 17.0831 0.212572 1.41891 18.6273 0.121954 2.01721 18.3455 0.129071
2.47042 17.1282 0.216439 2.43898 18.0975 0.0570903 1.65377 18.1314 0.0518036 1.04492
20.8643 0.000479343 -1.47473 20.9759 0.0158122 -2.06488 17.7689 -0.00143852 -0.403631 17.2191
-0.00463761 -1.30733 17.0125 -0.00425019 -1.73716 17.1331 -0.00350552 -2.18544 17.5372 -0.00144875
-1.24597 17.6938 -0.000571216 -0.456603 17.493 0.0321729 1.49332 16.7648 0.0512668 2.15225
15.7282 0.0713945 2.00793 16.9408 0.0408855 1.24662 11.471 0.996766 0.704101 10.8708
0.867691 0.507288 10.9361 1.06282 0.298666 11.0284 1.36215 -0.0730659 11.5239 1.48189
-0.219911 12.0478 1.09383 -0.114824 4.81758 0.0340755 0.617744 6.52822 0.0393546 0.00324356
6.78824 -0.0472223 1.54382 5.32234 -0.0319359 1.85169 16.437 -0.356441 -3.03083 10.6241
0.788776 1.16415 10.4217 0.605086 0.72506 10.6872 0.699664 0.641034 15.3424 -0.244811
5.81662 15.1956 -0.194625 5.77347 15.2751 -0.196643 5.68648 15.3869 -0.233226 5.72599
16.9359 0.0458714 -0.169929 16.4875 0.0507854 0.209866 14.6712 0.104003 -0.069893 14.8432
0.106387 -0.887666 15.8184 0.0871888 -1.26448 21.5512 -0.11338 0.0762252 21.421 -0.119434
0.0637878 21.4248 -0.117391 0.0234577 21.5536 -0.111463 0.0262879 11.4166 -0.0504798 1.39571
10.4933 -0.116917 1.77951 9.93843 0.0172222 0.934713 10.6009 0.0740649 0.719952 5.90567
0.100698 -2.02993 3.85303 0.112296 -0.831898 23.0697 0.637323 -9.00189 23.558 0.402748
-6.73129 22.7814 0.428257 -7.11323 22.915 0.648535 -9.15199 19.9266 -0.0071159 -1.02364
19.7993 -0.00801592 -1.16672 24.1103 0.384749 -6.45951 24.4145 0.540873 -7.69648 17.2905
-0.0392083 1.48582 17.305 -0.0343914 1.01476 17.6822 -0.0313771 0.585632 18.2778 -0.0241326
0.171934 0 0 0 2.39703 -1.23611 -6.30533 2.36197 -1.24662 -6.21877
0 0 0 16.3028 -0.660063 -3.00625 16.5785 -0.174407 -1.38207 16.285
-0.617547 -3.32879 15.3879 0.553365 -6.4424 15.7369 0.275843 -6.55705 16.2489 -0.386511
-3.94627 16.3944 -0.106111 -3.7344 16.8394 -0.036461 -1.62687 16.7362 -0.198475 -1.52313
2.165 -0.682576 -2.1025 2.72966 -0.664966 -1.85704 2.71436 -0.661954 -2.02584 18.4762
0.0706349 -0.3332 18.5152 0.0742801 -0.353387 19.4001 0.00917087 -0.163705 19.3742 0.00996737
-0.163899 19.3777 0.00996499 -0.168602 19.0745 0.00454154 0.601769 18.8933 0.00699271 0.73021
19.7048 0.00524917 1.45996 19.6621 0.00390181 1.32486 19.7807 0.00150475 1.14212 19.6586
-2.25836e-05 0.568593 19.7228 -0.000434667 0.538371 19.7094 -0.000246328 0.602175 19.6356 0.000291227
0.643598 15.2302 0.444873 3.0081 14.6268 0.569165 2.42855 14.6194 0.516807 1.38873
13.7505 -0.0587676 4.31108 12.3428 -0.0954568 5.93885 9.80498 -0.168308 7.62177 11.8759
-0.0975715 5.4786 14.8632 -0.034435 3.45056 14.0618 -0.0599568 4.5577 17.3358 0.0398443
-0.351689 17.3169 0.0378087 -0.186606 17.3812 0.036305 -0.0759887 17.2535 0.0390904 -0.1029
0 0 0 3.62571 -1.46126 -8.64562 7.76036 -0.716466 -9.42373 0
0 0 5.12165 -1.50047 -6.76803 4.02873 -1.33216 -5.36715 12.1504 0.402303
1.36491 12.8176 -0.0992789 0.966631 8.75181 0.0790402 -12.6349 8.96401 0.0650651 -11.6428
7.91247 0.0555725 -11.3328 7.66192 0.0715757 -12.5528 6.77642 -1.48326 -7.43214 9.81998
0.0709247 -11.8926 9.64852 0.0797654 -12.7747 8.2813 0.0598175 -0.364331 8.55145 0.0432439
0.648073 8.52725 0.0319083 1.53554 4.65519 0.296403 -5.27635 5.07349 0.199578 -5.06871
6.2149 -0.219524 -4.43078 4.87378 -0.347481 -4.89801 4.42996 -0.144012 -5.15751 9.33904
0.0299219 -10.7015 8.37912 0.0149526 -10.182 10.0717 0.0427783 -11.0889 16.6042 -0.404547
-1.38726 1.5785 -0.728623 -1.46793 2.7835 -0.673922 -1.33179 1.83077 -0.694222 -2.14945
11.0809 0.594796 1.77804 1.41536 -0.784473 -0.761148 2.80234 -0.690615 -0.50832 16.1837
0.145542 1.19431 16.4379 0.092016 0.424536 16.2151 0.0957432 0.581847 15.9029 0.10123
1.70137 0 0 0 0 0 0 10.8415 0.608361 6.07837
12.0036 0.201058 -5.93749 13.8421 0.326527 -3.76742 11.9497 0.261825 -4.41785 11.8987
0.252524 -4.46483 11.9795 0.196338 -5.95088 2.45145 -0.279561 3.40816 2.07562 -0.289215
2.88606 3.60859 -0.246216 2.49599 15.342 -0.315329 5.99211 15.0008 -0.15235 5.92019
15.0498 -0.0632442 5.76203 17.8213 -0.407074 2.23358 17.8997 -0.403856 2.747 17.6371
-0.498254 3.33901 16.7045 -0.457143 3.64887 16.8152 -0.417204 2.65866 15.4825 -0.288735
5.82806 15.4993 -0.268575 5.75416 18.459 -0.393088 1.94419 18.468 -0.393456 2.6265
15.6207 -0.33908 5.82526 15.6936 -0.436936 5.9361 17.6577 -0.318576 1.04827 16.9344
-0.355686 1.6242 17.9732 0.270939 0.148725 17.9449 0.158461 0.722621 17.6418 0.194511
0.55411 17.7272 0.268571 0.188504 15.2038 0.349814 -3.15278 14.45 0.354862 -4.57748
18.3653 -0.328407 0.33911 18.8818 -0.439311 0.567421 19.0975 -0.3579 1.54877 18.073
0.290686 -0.300115 18.1751 0.235135 -0.0219657 18.0141 0.271549 0.0774538 16.6866 0.0681843
-1.40856 17.3736 0.0439805 -0.681218 21.6683 -0.105397 0.026376 21.674 -0.106832 0.0818923
3.97361 -1.32687 -5.28995 11.083 0.111366 0.567078 12.1675 0.0142879 1.05888 9.15537
0.154974 0.280946 9.63467 0.176529 0.260745 4.67137 0.348311 -5.27812 9.97257 0.181832
0.252547 5.23244 -0.194456 3.03571 5.84491 -0.172249 3.69899 3.14477 -0.25173 4.58168
2.66722 -0.273991 3.70732 8.33242 -1.09865 -7.81352 4.31993 -0.22603 2.31507 18.1552
0.149321 -0.462762 18.4254 0.100122 -0.466591 18.4037 0.112946 -0.452753 18.1537 0.174709
-0.500773 17.7642 0.472504 -0.832458 17.7792 0.313739 -0.0335428 17.6712 0.306378 -0.0415616