# vtk DataFile Version 2.0
track0
ASCII
DATASET POLYDATA
POINTS 15780 float
-1.001 -0.05 0.0011
-1.0008 -0.05 0.0011
-1.0006 -0.05 0.0011
-1.0004 -0.05 0.0011
-1.0002 -0.05 0.0011
-1 -0.05 0.0011
-0.9875 -0.05 0.0011
-0.975 -0.05 0.0011
-0.9625 -0.05 0.0011
-0.95 -0.05 0.0011
-0.9375 -0.05 0.00109999
-0.925 -0.05 0.00109999
-0.9125 -0.05 0.00109999
-0.9 -0.05 0.00109999
-0.8875 -0.05 0.00109999
-0.875 -0.05 0.00109999
-0.8625 -0.05 0.00109999
-0.85 -0.05 0.00109999
-0.8375 -0.05 0.00109998
-0.825 -0.0500001 0.00109998
-0.8125 -0.0500001 0.00109998
-0.8 -0.0500001 0.00109998
-0.7875 -0.0500001 0.00109998
-0.775 -0.0500001 0.00109998
-0.7625 -0.0500001 0.00109998
-0.75 -0.0500001 0.00109998
-0.7375 -0.0500001 0.00109997
-0.725 -0.0500001 0.00109997
-0.7125 -0.0500001 0.00109997
-0.7 -0.0500001 0.00109997
-0.6875 -0.0500001 0.00109997
-0.675 -0.0500001 0.00109997
-0.6625 -0.0500001 0.00109997
-0.65 -0.0500001 0.00109996
-0.6375 -0.0500001 0.00109996
-0.625 -0.0500001 0.00109996
-0.6125 -0.0500001 0.00109996
-0.6 -0.0500001 0.00109996
-0.5875 -0.0500001 0.00109996
-0.575 -0.0500001 0.00109996
-0.5625 -0.0500001 0.00109996
-0.55 -0.0500001 0.00109995
-0.5375 -0.0500001 0.00109995
-0.525 -0.0500001 0.00109995
-0.5125 -0.0500001 0.00109995
-0.5 -0.0500001 0.00109995
-0.4875 -0.0500001 0.00109995
-0.475 -0.0500001 0.00109995
-0.4625 -0.0500001 0.00109994
-0.45 -0.0500002 0.00109994
-0.4375 -0.0500002 0.00109994
-0.425 -0.0500002 0.00109994
-0.4125 -0.0500002 0.00109994
-0.4 -0.0500002 0.00109994
-0.3875 -0.0500002 0.00109994
-0.375 -0.0500002 0.00109994
-0.3625 -0.0500002 0.00109993
-0.35 -0.0500002 0.00109993
-0.3375 -0.0500002 0.00109993
-0.325 -0.0500002 0.00109993
-0.3125 -0.0500002 0.00109993
-0.3 -0.0500002 0.00109993
-0.2875 -0.0500002 0.00109993
-0.275 -0.0500002 0.00109993
-0.2625 -0.0500002 0.00109992
-0.25 -0.0500002 0.00109992
-0.2375 -0.0500002 0.00109992
-0.225 -0.0500002 0.00109992
-0.2125 -0.0500002 0.00109992
-0.2 -0.0500002 0.00109992
-0.1875 -0.0500002 0.00109992
-0.175 -0.0500002 0.00109992
-0.1625 -0.0500002 0.00109991
-0.15 -0.0500002 0.00109991
-0.1375 -0.0500002 0.00109991
-0.125 -0.0500002 0.00109991
-0.1125 -0.0500002 0.00109991
-0.1 -0.0500002 0.00109991
-0.0875 -0.0500002 0.00109991
-0.075 -0.0500002 0.00109991
-0.0625 -0.0500002 0.00109991
-0.05 -0.0500003 0.00109991
-0.0375 -0.0500003 0.0010999
-0.025 -0.0500003 0.0010999
-0.0125 -0.0500003 0.0010999
2.10607e-13 -0.0500003 0.0010999
0.0125 -0.0500003 0.0010999
0.025 -0.0500003 0.0010999
0.0375 -0.0500003 0.0010999
0.05 -0.0500003 0.0010999
0.0625 -0.0500003 0.0010999
0.075 -0.0500003 0.0010999
0.0875 -0.0500003 0.0010999
0.1 -0.0500003 0.00109989
0.1125 -0.0500003 0.00109989
0.125 -0.0500003 0.00109989
0.1375 -0.0500003 0.00109989
0.15 -0.0500003 0.00109989
0.1625 -0.0500003 0.00109989
0.175 -0.0500003 0.00109989
0.1875 -0.0500003 0.00109989
0.2 -0.0500003 0.00109989
0.2125 -0.0500003 0.00109989
0.225 -0.0500003 0.00109989
0.2375 -0.0500003 0.00109989
0.25 -0.0500003 0.00109989
0.2625 -0.0500003 0.00109988
0.275 -0.0500003 0.00109988
0.2875 -0.0500003 0.00109988
0.3 -0.0500003 0.00109988
0.3125 -0.0500003 0.00109988
0.325 -0.0500003 0.00109988
0.3375 -0.0500003 0.00109988
0.35 -0.0500003 0.00109988
0.3625 -0.0500003 0.00109988
0.375 -0.0500003 0.00109988
0.3875 -0.0500003 0.00109988
0.4 -0.0500004 0.00109988
0.4125 -0.0500004 0.00109988
0.425 -0.0500004 0.00109988
0.4375 -0.0500004 0.00109988
0.45 -0.0500004 0.00109988
0.4625 -0.0500004 0.00109988
0.475 -0.0500004 0.00109988
0.4875 -0.0500004 0.00109988
0.5 -0.0500004 0.00109988
0.5125 -0.0500004 0.00109988
0.525 -0.0500004 0.00109988
0.5375 -0.0500004 0.00109988
0.55 -0.0500004 0.00109988
0.5625 -0.0500004 0.00109988
0.575 -0.0500004 0.00109987
0.5875 -0.0500004 0.00109987
0.6 -0.0500004 0.00109987
0.6125 -0.0500004 0.00109987
0.625 -0.0500004 0.00109987
0.6375 -0.0500004 0.00109987
0.65 -0.0500004 0.00109987
0.6625 -0.0500004 0.00109987
0.675 -0.0500004 0.00109987
0.6875 -0.0500004 0.00109987
0.7 -0.0500004 0.00109987
0.7125 -0.0500004 0.00109987
0.725 -0.0500004 0.00109987
0.7375 -0.0500004 0.00109987
0.75 -0.0500004 0.00109987
0.7625 -0.0500004 0.00109987
0.775 -0.0500004 0.00109987
0.7875 -0.0500004 0.00109987
0.8 -0.0500004 0.00109987
0.8125 -0.0500004 0.00109987
0.825 -0.0500004 0.00109987
0.8375 -0.0500004 0.00109987
0.85 -0.0500004 0.00109987
0.8625 -0.0500004 0.00109987
0.875 -0.0500004 0.00109987
0.8875 -0.0500004 0.00109987
0.9 -0.0500004 0.00109987
0.9125 -0.0500005 0.00109988
0.925 -0.0500005 0.00109988
0.9375 -0.0500005 0.00109988
0.95 -0.0500005 0.00109988
0.9625 -0.0500005 0.00109988
0.975 -0.0500005 0.00109988
0.9875 -0.0500005 0.00109988
1 -0.0500005 0.00109988
1.0125 -0.0500005 0.00109988
1.025 -0.0500005 0.00109988
1.0375 -0.0500005 0.00109988
1.05 -0.0500005 0.00109988
1.0625 -0.0500005 0.00109988
1.075 -0.0500005 0.00109988
1.0875 -0.0500005 0.00109988
1.1 -0.0500005 0.00109988
1.1125 -0.0500005 0.00109988
1.125 -0.0500005 0.00109988
1.1375 -0.0500005 0.00109988
1.15 -0.0500005 0.00109988
1.1625 -0.0500005 0.00109988
1.175 -0.0500005 0.00109988
1.1875 -0.0500005 0.00109988
1.2 -0.0500005 0.00109988
1.2125 -0.0500005 0.00109988
1.225 -0.0500005 0.00109988
1.2375 -0.0500005 0.00109989
1.25 -0.0500005 0.00109989
1.2625 -0.0500005 0.00109989
1.275 -0.0500005 0.00109989
1.2875 -0.0500005 0.00109989
1.3 -0.0500005 0.00109989
1.3125 -0.0500005 0.00109989
1.325 -0.0500005 0.00109989
1.3375 -0.0500005 0.00109989
1.35 -0.0500005 0.00109989
1.3625 -0.0500005 0.00109989
1.375 -0.0500005 0.00109989
1.3875 -0.0500005 0.00109989
1.4 -0.0500005 0.00109989
1.4125 -0.0500005 0.00109989
1.425 -0.0500005 0.00109989
1.4375 -0.0500005 0.0010999
1.45 -0.0500005 0.0010999
1.4625 -0.0500005 0.0010999
1.475 -0.0500005 0.0010999
1.4875 -0.0500005 0.0010999
1.5 -0.0500006 0.0010999
1.5125 -0.0500006 0.0010999
1.525 -0.0500006 0.0010999
1.5375 -0.0500006 0.0010999
1.55 -0.0500006 0.0010999
1.5625 -0.0500006 0.0010999
1.575 -0.0500006 0.0010999
1.5875 -0.0500006 0.0010999
1.6 -0.0500006 0.0010999
1.6125 -0.0500006 0.00109991
1.625 -0.0500006 0.00109991
1.6375 -0.0500006 0.00109991
1.65 -0.0500006 0.00109991
1.6625 -0.0500006 0.00109991
1.675 -0.0500006 0.00109991
1.6875 -0.0500006 0.00109991
1.7 -0.0500006 0.00109991
1.7125 -0.0500006 0.00109991
1.725 -0.0500006 0.00109991
1.7375 -0.0500006 0.00109991
1.75 -0.0500006 0.00109991
1.7625 -0.0500006 0.00109992
1.775 -0.0500006 0.00109992
1.7875 -0.0500006 0.00109992
1.8 -0.0500006 0.00109992
1.8125 -0.0500006 0.00109992
1.825 -0.0500006 0.00109992
1.8375 -0.0500006 0.00109992
1.85 -0.0500006 0.00109992
1.8625 -0.0500006 0.00109992
1.875 -0.0500006 0.00109992
1.8875 -0.0500006 0.00109992
1.9 -0.0500006 0.00109992
1.9125 -0.0500006 0.00109993
1.925 -0.0500006 0.00109993
1.9375 -0.0500006 0.00109993
1.95 -0.0500006 0.00109993
1.9625 -0.0500006 0.00109993
1.975 -0.0500006 0.00109993
1.9875 -0.0500006 0.00109993
2 -0.0500006 0.00109993
2.0125 -0.0500006 0.00109993
2.025 -0.0500006 0.00109993
2.0375 -0.0500006 0.00109993
2.05 -0.0500006 0.00109993
2.0625 -0.0500006 0.00109994
2.075 -0.0500006 0.00109994
2.0875 -0.0500006 0.00109994
2.1 -0.0500006 0.00109994
2.1125 -0.0500006 0.00109994
2.125 -0.0500006 0.00109994
2.1375 -0.0500006 0.00109994
2.15 -0.0500006 0.00109994
2.1625 -0.0500006 0.00109994
2.175 -0.0500007 0.00109994
2.1875 -0.0500007 0.00109994
2.2 -0.0500007 0.00109994
2.2125 -0.0500007 0.00109994
2.225 -0.0500007 0.00109995
2.2375 -0.0500007 0.00109995
2.25 -0.0500007 0.00109995
2.2625 -0.0500007 0.00109995
2.275 -0.0500007 0.00109995
2.2875 -0.0500007 0.00109995
2.3 -0.0500007 0.00109995
2.3125 -0.0500007 0.00109995
2.325 -0.0500007 0.00109995
2.3375 -0.0500007 0.00109995
2.35 -0.0500007 0.00109995
2.3625 -0.0500007 0.00109995
2.375 -0.0500007 0.00109995
2.3875 -0.0500007 0.00109996
2.4 -0.0500007 0.00109996
2.4125 -0.0500007 0.00109996
2.425 -0.0500007 0.00109996
2.4375 -0.0500007 0.00109996
2.45 -0.0500007 0.00109996
2.4625 -0.0500007 0.00109996
2.475 -0.0500007 0.00109996
2.4875 -0.0500007 0.00109996
2.5 -0.0500007 0.00109996
2.5125 -0.0500007 0.00109996
2.525 -0.0500007 0.00109996
2.5375 -0.0500007 0.00109996
2.55 -0.0500007 0.00109996
2.5625 -0.0500007 0.00109997
2.575 -0.0500007 0.00109997
2.5875 -0.0500007 0.00109997
2.6 -0.0500007 0.00109997
2.6125 -0.0500007 0.00109997
2.625 -0.0500007 0.00109997
2.6375 -0.0500007 0.00109997
2.65 -0.0500007 0.00109997
2.6625 -0.0500007 0.00109997
2.675 -0.0500007 0.00109997
2.6875 -0.0500007 0.00109997
2.7 -0.0500007 0.00109997
2.7125 -0.0500007 0.00109997
2.725 -0.0500007 0.00109997
2.7375 -0.0500007 0.00109997
2.75 -0.0500007 0.00109997
2.7625 -0.0500007 0.00109998
2.775 -0.0500007 0.00109998
2.7875 -0.0500007 0.00109998
2.8 -0.0500007 0.00109998
2.8125 -0.0500007 0.00109998
2.825 -0.0500007 0.00109998
2.8375 -0.0500007 0.00109998
2.85 -0.0500007 0.00109998
2.8625 -0.0500008 0.00109998
2.875 -0.0500008 0.00109998
2.8875 -0.0500008 0.00109998
2.9 -0.0500008 0.00109998
2.9125 -0.0500008 0.00109998
2.925 -0.0500008 0.00109998
2.9375 -0.0500008 0.00109998
2.95 -0.0500008 0.00109998
2.9625 -0.0500008 0.00109998
2.975 -0.0500008 0.00109998
2.9875 -0.0500008 0.00109998
3 -0.0500008 0.00109998
3.0125 -0.0500008 0.00109999
3.025 -0.0500008 0.00109999
3.0375 -0.0500008 0.00109999
3.05 -0.0500008 0.00109999
3.0625 -0.0500008 0.00109999
3.075 -0.0500008 0.00109999
3.0875 -0.0500008 0.00109999
3.1 -0.0500008 0.00109999
3.1125 -0.0500008 0.00109999
3.125 -0.0500008 0.00109999
3.1375 -0.0500008 0.00109999
3.15 -0.0500008 0.00109999
3.1625 -0.0500008 0.00109999
3.175 -0.0500008 0.00109999
3.1875 -0.0500008 0.00109999
3.2 -0.0500008 0.00109999
3.2125 -0.0500008 0.00109999
3.225 -0.0500008 0.00109999
3.2375 -0.0500008 0.00109999
3.25 -0.0500008 0.00109999
3.2625 -0.0500008 0.00109999
3.275 -0.0500008 0.00109999
3.2875 -0.0500008 0.00109999
3.3 -0.0500008 0.00109999
3.3125 -0.0500008 0.00109999
3.325 -0.0500008 0.00109999
3.3375 -0.0500008 0.00109999
3.35 -0.0500008 0.0011
3.3625 -0.0500008 0.0011
[...]
POINT_DATA 15780
 FIELD attributes 1
U 3 15780 float
30.0002 	-7.01767e-06 	-6.30588e-06 30.0002 	-6.84318e-06 	-6.51455e-06 30.0002 	-6.6687e-06 	-6.72322e-06 30.0002 	-6.49422e-06 	-6.93188e-06 30.0002 	-6.31974e-06 	-7.14055e-06 30.0002 	-6.14526e-06 	-7.34922e-06 30.0004 	-1.23848e-05 	-1.26098e-06 30.0004 	-1.23848e-05 	-1.26098e-06 30.0004 	-1.23848e-05 	-1.26098e-06 30.0004 	-1.23848e-05 	-1.26098e-06 30.0002 	-7.03258e-08 	-6.84367e-06 30.0005 	-1.07087e-05 	-1.68703e-06 30.0005 	-1.07087e-05 	-1.68702e-06 30.0005 	-1.07087e-05 	-1.68702e-06 30.0005 	-1.07087e-05 	-1.68702e-06 30.0002 	-7.20041e-08 	-6.59608e-06 30.0005 	-9.9581e-06 	-2.0802e-06 30.0005 	-9.95809e-06 	-2.0802e-06 30.0005 	-9.95809e-06 	-2.0802e-06 30.0005 	-9.95808e-06 	-2.0802e-06 30.0003 	-4.5929e-06 	-6.24727e-06 30.0005 	-9.69133e-06 	-2.34893e-06 30.0005 	-9.69132e-06 	-2.34893e-06 30.0005 	-9.69131e-06 	-2.34893e-06 30.0005 	-9.6913e-06 	-2.34892e-06 30.0003 	-7.56048e-08 	-6.57616e-06 30.0005 	-9.52316e-06 	-2.4978e-06 30.0005 	-9.52315e-06 	-2.4978e-06 30.0005 	-9.52314e-06 	-2.49779e-06 30.0005 	-9.52313e-06 	-2.49779e-06 30.0003 	-7.73666e-08 	-6.52627e-06 30.0005 	-9.38679e-06 	-2.55604e-06 30.0005 	-9.38678e-06 	-2.55604e-06 30.0005 	-9.38677e-06 	-2.55604e-06 30.0005 	-9.38676e-06 	-2.55603e-06 30.0003 	-4.26672e-06 	-6.08529e-06 30.0005 	-9.27936e-06 	-2.55827e-06 30.0005 	-9.27935e-06 	-2.55827e-06 30.0005 	-9.27934e-06 	-2.55827e-06 30.0005 	-9.27933e-06 	-2.55827e-06 30.0003 	-4.19912e-06 	-5.9779e-06 30.0006 	-9.18719e-06 	-2.53041e-06 30.0006 	-9.18718e-06 	-2.53041e-06 30.0006 	-9.18717e-06 	-2.53041e-06 30.0006 	-9.18716e-06 	-2.5304e-06 30.0003 	-8.26759e-08 	-6.20127e-06 30.0006 	-9.09712e-06 	-2.48117e-06 30.0006 	-9.09711e-06 	-2.48116e-06 30.0006 	-9.0971e-06 	-2.48116e-06 30.0006 	-9.09709e-06 	-2.48116e-06 30.0003 	-8.44239e-08 	-6.05424e-06 30.0006 	-9.00464e-06 	-2.4136e-06 30.0006 	-9.00464e-06 	-2.4136e-06 30.0006 	-9.00463e-06 	-2.41359e-06 30.0006 	-9.00462e-06 	-2.41359e-06 30.0003 	-8.61695e-08 	-5.88783e-06 30.0006 	-8.90848e-06 	-2.32972e-06 30.0006 	-8.90848e-06 	-2.32971e-06 30.0006 	-8.90847e-06 	-2.32971e-06 30.0006 	-8.90846e-06 	-2.32971e-06 30.0003 	-3.9377e-06 	-5.36348e-06 30.0006 	-8.80842e-06 	-2.23274e-06 30.0006 	-8.80842e-06 	-2.23273e-06 30.0006 	-8.80841e-06 	-2.23273e-06 30.0006 	-8.8084e-06 	-2.23273e-06 30.0003 	-3.86391e-06 	-5.16476e-06 30.0006 	-8.70414e-06 	-2.12413e-06 30.0006 	-8.70414e-06 	-2.12413e-06 30.0006 	-8.70413e-06 	-2.12413e-06 30.0006 	-8.70412e-06 	-2.12413e-06 30.0003 	-9.14122e-08 	-5.28458e-06 30.0006 	-8.59594e-06 	-2.00507e-06 30.0006 	-8.59593e-06 	-2.00507e-06 30.0006 	-8.59593e-06 	-2.00507e-06 30.0006 	-8.59592e-06 	-2.00507e-06 30.0003 	-3.70429e-06 	-4.7194e-06 30.0007 	-8.48454e-06 	-1.87668e-06 30.0007 	-8.48454e-06 	-1.87668e-06 30.0007 	-8.48453e-06 	-1.87668e-06 30.0007 	-8.48452e-06 	-1.87667e-06 30.0003 	-3.61918e-06 	-4.47432e-06 30.0007 	-8.37118e-06 	-1.73883e-06 30.0007 	-8.37117e-06 	-1.73883e-06 30.0007 	-8.37117e-06 	-1.73883e-06 30.0007 	-8.37116e-06 	-1.73883e-06 30.0004 	-9.66036e-08 	-4.54319e-06 30.0007 	-8.25959e-06 	-1.59803e-06 30.0007 	-8.25958e-06 	-1.59803e-06 30.0007 	-8.25958e-06 	-1.59803e-06 30.0007 	-8.25957e-06 	-1.59803e-06 30.0004 	-9.83265e-08 	-4.27124e-06 30.0007 	-8.14755e-06 	-1.46323e-06 30.0007 	-8.14755e-06 	-1.46323e-06 30.0007 	-8.14754e-06 	-1.46323e-06 30.0007 	-8.14754e-06 	-1.46323e-06 30.0004 	-1.00039e-07 	-3.98927e-06 30.0007 	-8.01944e-06 	-1.32072e-06 30.0007 	-8.01944e-06 	-1.32072e-06 30.0007 	-8.01943e-06 	-1.32072e-06 30.0007 	-8.01943e-06 	-1.32072e-06 30.0004 	-3.25074e-06 	-3.37796e-06 30.0007 	-7.88061e-06 	-1.168e-06 30.0007 	-7.88061e-06 	-1.168e-06 30.0007 	-7.8806e-06 	-1.168e-06 30.0007 	-7.8806e-06 	-1.168e-06 30.0004 	-1.03426e-07 	-3.40288e-06 30.0007 	-7.74465e-06 	-1.00787e-06 30.0007 	-7.74465e-06 	-1.00787e-06 30.0007 	-7.74465e-06 	-1.00787e-06 30.0007 	-7.74464e-06 	-1.00787e-06 30.0004 	-1.05117e-07 	-3.10327e-06 30.0007 	-7.61048e-06 	-8.4186e-07 30.0007 	-7.61048e-06 	-8.41859e-07 30.0007 	-7.61048e-06 	-8.41859e-07 30.0007 	-7.61048e-06 	-8.41859e-07 30.0004 	-2.93152e-06 	-2.48789e-06 30.0007 	-7.47467e-06 	-6.70207e-07 30.0007 	-7.47467e-06 	-6.70207e-07 30.0007 	-7.47467e-06 	-6.70206e-07 30.0007 	-7.47467e-06 	-6.70206e-07 30.0004 	-2.82503e-06 	-2.18314e-06 30.0007 	-7.34251e-06 	-4.97054e-07 30.0007 	-7.34251e-06 	-4.97054e-07 30.0007 	-7.34251e-06 	-4.97053e-07 30.0007 	-7.34251e-06 	-4.97053e-07 30.0004 	-1.10146e-07 	-2.17111e-06 30.0007 	-7.21468e-06 	-3.17329e-07 30.0007 	-7.21468e-06 	-3.17329e-07 30.0007 	-7.21468e-06 	-3.17329e-07 30.0007 	-7.21468e-06 	-3.17329e-07 30.0004 	-1.11804e-07 	-1.85337e-06 30.0007 	-7.0979e-06 	-1.38225e-07 30.0007 	-7.0979e-06 	-1.38225e-07 30.0007 	-7.0979e-06 	-1.38225e-07 30.0007 	-7.0979e-06 	-1.38225e-07 30.0004 	-1.13444e-07 	-1.54903e-06 30.0007 	-6.98454e-06 	4.08397e-08 30.0007 	-6.98454e-06 	4.08397e-08 30.0007 	-6.98454e-06 	4.08397e-08 30.0007 	-6.98454e-06 	4.08397e-08 30.0004 	-2.43851e-06 	-9.58518e-07 30.0007 	-6.87091e-06 	2.14654e-07 30.0007 	-6.87091e-06 	2.14654e-07 30.0007 	-6.87091e-06 	2.14654e-07 30.0007 	-6.87091e-06 	2.14654e-07 30.0004 	-2.34689e-06 	-6.82317e-07 30.0007 	-6.75274e-06 	3.90704e-07 30.0007 	-6.75274e-06 	3.90704e-07 30.0007 	-6.75274e-06 	3.90704e-07 30.0007 	-6.75274e-06 	3.90704e-07 30.0004 	-1.18369e-07 	-7.09784e-07 30.0007 	-6.64222e-06 	5.64357e-07 30.0007 	-6.64222e-06 	5.64357e-07 30.0007 	-6.64222e-06 	5.64357e-07 30.0007 	-6.64222e-06 	5.64357e-07 30.0004 	-2.16653e-06 	-1.45459e-07 30.0007 	-6.53521e-06 	7.27382e-07 30.0007 	-6.53521e-06 	7.27382e-07 30.0007 	-6.53521e-06 	7.27382e-07 30.0007 	-6.53522e-06 	7.27383e-07 30.0004 	-2.08086e-06 	1.13818e-07 30.0007 	-6.42989e-06 	8.7882e-07 30.0007 	-6.42989e-06 	8.7882e-07 30.0007 	-6.42989e-06 	8.78821e-07 30.0007 	-6.42989e-06 	8.78821e-07 30.0004 	-1.23266e-07 	7.05601e-08 30.0007 	-6.32233e-06 	1.01777e-06 30.0007 	-6.32234e-06 	1.01777e-06 30.0007 	-6.32234e-06 	1.01777e-06 30.0007 	-6.32234e-06 	1.01777e-06 30.0004 	-1.24862e-07 	3.15788e-07 30.0007 	-6.21594e-06 	1.1406e-06 30.0007 	-6.21594e-06 	1.1406e-06 30.0007 	-6.21595e-06 	1.1406e-06 30.0007 	-6.21595e-06 	1.1406e-06 30.0004 	-1.26441e-07 	5.45505e-07 30.0007 	-6.11466e-06 	1.2563e-06 30.0007 	-6.11466e-06 	1.2563e-06 30.0007 	-6.11466e-06 	1.2563e-06 30.0007 	-6.11467e-06 	1.2563e-06 30.0004 	-1.76404e-06 	1.03206e-06 30.0007 	-6.02191e-06 	1.37125e-06 30.0007 	-6.02192e-06 	1.37126e-06 30.0007 	-6.02192e-06 	1.37126e-06 30.0007 	-6.02192e-06 	1.37126e-06 30.0004 	-1.29534e-07 	9.36922e-07 30.0007 	-5.94225e-06 	1.48848e-06 30.0007 	-5.94226e-06 	1.48848e-06 30.0007 	-5.94226e-06 	1.48848e-06 30.0007 	-5.94226e-06 	1.48848e-06 30.0004 	-1.31039e-07 	1.10454e-06 30.0007 	-5.87103e-06 	1.59287e-06 30.0007 	-5.87103e-06 	1.59287e-06 30.0007 	-5.87103e-06 	1.59287e-06 30.0007 	-5.87104e-06 	1.59287e-06 30.0004 	-1.59116e-06 	1.53875e-06 30.0007 	-5.8014e-06 	1.6793e-06 30.0007 	-5.80141e-06 	1.6793e-06 30.0007 	-5.80141e-06 	1.6793e-06 30.0007 	-5.80141e-06 	1.6793e-06 30.0003 	-1.54395e-06 	1.6782e-06 30.0007 	-5.73335e-06 	1.75009e-06 30.0007 	-5.73335e-06 	1.75009e-06 30.0007 	-5.73336e-06 	1.75009e-06 30.0007 	-5.73336e-06 	1.75009e-06 30.0003 	-1.35747e-07 	1.52471e-06 30.0006 	-5.66822e-06 	1.80979e-06 30.0006 	-5.66822e-06 	1.80979e-06 30.0006 	-5.66822e-06 	1.80979e-06 30.0006 	-5.66823e-06 	1.80979e-06 30.0003 	-1.37303e-07 	1.63225e-06 30.0006 	-5.60813e-06 	1.85992e-06 30.0006 	-5.60813e-06 	1.85992e-06 30.0006 	-5.60814e-06 	1.85992e-06 30.0006 	-5.60814e-06 	1.85993e-06 30.0003 	-1.3877e-07 	1.72398e-06 30.0006 	-5.55383e-06 	1.90041e-06 30.0006 	-5.55383e-06 	1.90042e-06 30.0006 	-5.55384e-06 	1.90042e-06 30.0006 	-5.55384e-06 	1.90042e-06 30.0003 	-1.38865e-06 	2.07102e-06 30.0006 	-5.50499e-06 	1.93108e-06 30.0006 	-5.50499e-06 	1.93108e-06 30.0006 	-5.505e-06 	1.93108e-06 30.0006 	-5.505e-06 	1.93108e-06 30.0003 	-1.36162e-06 	2.13095e-06 30.0006 	-5.4613e-06 	1.95182e-06 30.0006 	-5.4613e-06 	1.95182e-06 30.0006 	-5.46131e-06 	1.95182e-06 30.0006 	-5.46131e-06 	1.95182e-06 30.0003 	-1.42838e-07 	1.90824e-06 30.0006 	-5.42255e-06 	1.96277e-06 30.0006 	-5.42256e-06 	1.96277e-06 30.0006 	-5.42256e-06 	1.96277e-06 30.0006 	-5.42257e-06 	1.96277e-06 30.0003 	-1.32327e-06 	2.20765e-06 30.0006 	-5.38859e-06 	1.9643e-06 30.0006 	-5.38859e-06 	1.9643e-06 30.0006 	-5.38859e-06 	1.9643e-06 30.0006 	-5.3886e-06 	1.9643e-06 30.0003 	-1.31151e-06 	2.22553e-06 30.0006 	-5.35942e-06 	1.9569e-06 30.0006 	-5.35943e-06 	1.9569e-06 30.0006 	-5.35943e-06 	1.9569e-06 30.0006 	-5.35943e-06 	1.9569e-06 30.0003 	-1.46755e-07 	1.96615e-06 30.0005 	-5.33502e-06 	1.94111e-06 30.0005 	-5.33502e-06 	1.94111e-06 30.0005 	-5.33503e-06 	1.94111e-06 30.0005 	-5.33503e-06 	1.94111e-06 30.0003 	-1.48032e-07 	1.96055e-06 30.0005 	-5.31502e-06 	1.91792e-06 30.0005 	-5.31502e-06 	1.91792e-06 30.0005 	-5.31503e-06 	1.91792e-06 30.0005 	-5.31503e-06 	1.91792e-06 30.0003 	-1.4925e-07 	1.94422e-06 30.0005 	-5.29943e-06 	1.88799e-06 30.0005 	-5.29943e-06 	1.88799e-06 30.0005 	-5.29944e-06 	1.88799e-06 30.0005 	-5.29944e-06 	1.88799e-06 30.0003 	-1.30899e-06 	2.17899e-06 30.0005 	-5.28809e-06 	1.85189e-06 30.0005 	-5.2881e-06 	1.85189e-06 30.0005 	-5.2881e-06 	1.8519e-06 30.0005 	-5.2881e-06 	1.8519e-06 30.0003 	-1.51608e-07 	1.88228e-06 30.0005 	-5.28083e-06 	1.81007e-06 30.0005 	-5.28084e-06 	1.81007e-06 30.0005 	-5.28084e-06 	1.81007e-06 30.0005 	-5.28084e-06 	1.81008e-06 30.0003 	-1.52739e-07 	1.83816e-06 30.0005 	-5.27739e-06 	1.76315e-06 30.0005 	-5.27739e-06 	1.76315e-06 30.0005 	-5.2774e-06 	1.76315e-06 30.0005 	-5.2774e-06 	1.76316e-06 30.0003 	-1.34822e-06 	2.04407e-06 30.0005 	-5.27756e-06 	1.71162e-06 30.0005 	-5.27757e-06 	1.71162e-06 30.0005 	-5.27757e-06 	1.71162e-06 30.0005 	-5.27758e-06 	1.71162e-06 30.0003 	-1.3683e-06 	1.98423e-06 30.0005 	-5.28118e-06 	1.65599e-06 30.0005 	-5.28118e-06 	1.65599e-06 30.0005 	-5.28119e-06 	1.65599e-06 30.0005 	-5.28119e-06 	1.65599e-06 30.0002 	-1.55971e-07 	1.6628e-06 30.0005 	-5.28799e-06 	1.59668e-06 30.0005 	-5.28799e-06 	1.59668e-06 30.0005 	-5.28799e-06 	1.59668e-06 30.0005 	-5.288e-06 	1.59668e-06 30.0002 	-1.5703e-07 	1.59255e-06 30.0004 	-5.29794e-06 	1.53416e-06 30.0004 	-5.29794e-06 	1.53416e-06 30.0004 	-5.29795e-06 	1.53416e-06 30.0004 	-5.29795e-06 	1.53416e-06 30.0002 	-1.58105e-07 	1.51768e-06 30.0004 	-5.31089e-06 	1.46889e-06 30.0004 	-5.31089e-06 	1.4689e-06 30.0004 	-5.31089e-06 	1.4689e-06 30.0004 	-5.31089e-06 	1.4689e-06 30.0002 	-1.47998e-06 	1.69062e-06 30.0004 	-5.32644e-06 	1.40144e-06 30.0004 	-5.32644e-06 	1.40145e-06 30.0004 	-5.32644e-06 	1.40145e-06 30.0004 	-5.32644e-06 	1.40145e-06 30.0002 	-1.51452e-06 	1.60713e-06 30.0004 	-5.34439e-06 	1.3322e-06 30.0004 	-5.3444e-06 	1.3322e-06 30.0004 	-5.3444e-06 	1.3322e-06 30.0004 	-5.3444e-06 	1.3322e-06 30.0002 	-1.61398e-07 	1.27186e-06 30.0004 	-5.36446e-06 	1.26149e-06 30.0004 	-5.36446e-06 	1.26149e-06 30.0004 	-5.36447e-06 	1.26149e-06 30.0004 	-5.36447e-06 	1.26149e-06 30.0002 	-1.58987e-06 	1.4325e-06 30.0004 	-5.38628e-06 	1.18982e-06 30.0004 	-5.38628e-06 	1.18982e-06 30.0004 	-5.38629e-06 	1.18982e-06 30.0004 	-5.38629e-06 	1.18982e-06 30.0002 	-1.63036e-06 	1.34242e-06 30.0004 	-5.40992e-06 	1.11749e-06 30.0004 	-5.40993e-06 	1.1175e-06 30.0004 	-5.40993e-06 	1.1175e-06 30.0004 	-5.40993e-06 	1.1175e-06 30.0002 	-1.6445e-07 	1.00608e-06 30.0004 	-5.43512e-06 	1.04482e-06 30.0004 	-5.43512e-06 	1.04482e-06 30.0004 	-5.43512e-06 	1.04482e-06 30.0004 	-5.43512e-06 	1.04482e-06 30.0002 	-1.65413e-07 	9.15612e-07 30.0004 	-5.46078e-06 	9.72286e-07 30.0004 	-5.46078e-06 	9.72286e-07 30.0004 	-5.46079e-06 	9.72287e-07 30.0004 	-5.46079e-06 	9.72287e-07 30.0002 	-1.66321e-07 	8.24991e-07 30.0004 	-5.48685e-06 	8.99507e-07 30.0004 	-5.48685e-06 	8.99508e-07 30.0004 	-5.48685e-06 	8.99508e-07 30.0004 	-5.48685e-06 	8.99508e-07 30.0002 	-1.8073e-06 	9.75423e-07 30.0004 	-5.51365e-06 	8.25976e-07 30.0004 	-5.51366e-06 	8.25976e-07 30.0004 	-5.51366e-06 	8.25976e-07 30.0004 	-5.51366e-06 	8.25976e-07 30.0002 	-1.68041e-07 	6.43626e-07 30.0003 	-5.54342e-06 	7.52017e-07 30.0003 	-5.54342e-06 	7.52017e-07 30.0003 	-5.54342e-06 	7.52017e-07 30.0003 	-5.54343e-06 	7.52017e-07 30.0002 	-1.68871e-07 	5.52632e-07 30.0003 	-5.57791e-06 	6.77472e-07 30.0003 	-5.57791e-06 	6.77472e-07 30.0003 	-5.57791e-06 	6.77473e-07 30.0003 	-5.57791e-06 	6.77473e-07 30.0002 	-1.95569e-06 	7.01315e-07 30.0003 	-5.61477e-06 	6.04407e-07 30.0003 	-5.61477e-06 	6.04407e-07 30.0003 	-5.61477e-06 	6.04407e-07 30.0003 	-5.61477e-06 	6.04407e-07 30.0002 	-2.00788e-06 	6.11685e-07 30.0003 	-5.65089e-06 	5.34693e-07 30.0003 	-5.65089e-06 	5.34693e-07 30.0003 	-5.65089e-06 	5.34693e-07 30.0003 	-5.65089e-06 	5.34693e-07 30.0002 	-1.71369e-07 	2.8094e-07 30.0003 	-5.68201e-06 	4.67668e-07 30.0003 	-5.68201e-06 	4.67668e-07 30.0003 	-5.68201e-06 	4.67668e-07 30.0003 	-5.68201e-06 	4.67668e-07 30.0002 	-1.72199e-07 	1.97326e-07 30.0003 	-5.71043e-06 	4.03222e-07 30.0003 	-5.71043e-06 	4.03223e-07 30.0003 	-5.71043e-06 	4.03223e-07 30.0003 	-5.71043e-06 	4.03223e-07 30.0002 	-1.72996e-07 	1.16395e-07 30.0003 	-5.7386e-06 	3.39259e-07 30.0003 	-5.7386e-06 	3.39259e-07 30.0003 	-5.73861e-06 	3.39259e-07 30.0003 	-5.73861e-06 	3.39259e-07 30.0002 	-2.20116e-06 	2.74086e-07 30.0003 	-5.76658e-06 	2.75293e-07 30.0003 	-5.76658e-06 	2.75293e-07 30.0003 	-5.76658e-06 	2.75293e-07 30.0003 	-5.76658e-06 	2.75293e-07 30.0002 	-2.24809e-06 	1.96344e-07 30.0003 	-5.79336e-06 	2.10809e-07 30.0003 	-5.79336e-06 	2.10809e-07 30.0003 	-5.79336e-06 	2.10809e-07 30.0003 	-5.79337e-06 	2.10809e-07 30.0002 	-1.75185e-07 	-1.09152e-07 30.0003 	-5.8214e-06 	1.48801e-07 30.0003 	-5.8214e-06 	1.48801e-07 30.0003 	-5.8214e-06 	1.48801e-07 30.0003 	-5.8214e-06 	1.48801e-07 30.0002 	-2.34188e-06 	4.46564e-08 30.0003 	-5.85066e-06 	9.00032e-08 30.0003 	-5.85066e-06 	9.00032e-08 30.0003 	-5.85066e-06 	9.00032e-08 30.0003 	-5.85066e-06 	9.00032e-08 30.0002 	-2.38919e-06 	-2.91192e-08 30.0003 	-5.88109e-06 	3.48349e-08 30.0003 	-5.88109e-06 	3.48349e-08 30.0003 	-5.88109e-06 	3.48349e-08 30.0003 	-5.88109e-06 	3.48349e-08 30.0002 	-1.77203e-07 	-3.30783e-07 30.0003 	-5.91287e-06 	-1.70519e-08 30.0003 	-5.91287e-06 	-1.70519e-08 30.0003 	-5.91287e-06 	-1.70519e-08 30.0003 	-5.91287e-06 	-1.70519e-08 30.0002 	-1.7784e-07 	-4.01816e-07 30.0003 	-5.946e-06 	-6.90324e-08 30.0003 	-5.946e-06 	-6.90324e-08 30.0003 	-5.946e-06 	-6.90324e-08 30.0003 	-5.946e-06 	-6.90324e-08 30.0002 	-1.78451e-07 	-4.67086e-07 30.0003 	-5.97797e-06 	-1.23297e-07 30.0003 	-5.97797e-06 	-1.23297e-07 30.0003 	-5.97797e-06 	-1.23297e-07 30.0003 	-5.97797e-06 	-1.23297e-07 30.0002 	-2.58074e-06 	-3.01394e-07 30.0003 	-6.00576e-06 	-1.7794e-07 30.0003 	-6.00576e-06 	-1.77939e-07 30.0003 	-6.00576e-06 	-1.77939e-07 30.0003 	-6.00576e-06 	-1.77939e-07 30.0002 	-1.79649e-07 	-5.84898e-07 30.0003 	-6.0299e-06 	-2.29198e-07 30.0003 	-6.0299e-06 	-2.29198e-07 30.0003 	-6.0299e-06 	-2.29198e-07 30.0003 	-6.0299e-06 	-2.29198e-07 30.0002 	-1.80249e-07 	-6.42162e-07 30.0003 	-6.05315e-06 	-2.76161e-07 30.0003 	-6.05315e-06 	-2.76161e-07 30.0003 	-6.05315e-06 	-2.76161e-07 30.0003 	-6.05315e-06 	-2.76161e-07 30.0002 	-2.70882e-06 	-4.78998e-07 30.0003 	-6.07701e-06 	-3.19641e-07 30.0003 	-6.07701e-06 	-3.19641e-07 30.0003 	-6.07701e-06 	-3.19641e-07 30.0003 	-6.07701e-06 	-3.19641e-07 30.0002 	-2.74986e-06 	-5.34041e-07 30.0003 	-6.10128e-06 	-3.61173e-07 30.0003 	-6.10128e-06 	-3.61173e-07 30.0003 	-6.10128e-06 	-3.61173e-07 30.0003 	-6.10128e-06 	-3.61173e-07 30.0002 	-1.82003e-07 	-8.038e-07 30.0003 	-6.12533e-06 	-4.01371e-07 30.0003 	-6.12533e-06 	-4.01371e-07 30.0003 	-6.12532e-06 	-4.01371e-07 30.0003 	-6.12532e-06 	-4.01371e-07 30.0001 	-1.82557e-07 	-8.5312e-07 30.0003 	-6.14873e-06 	-4.40364e-07 30.0003 	-6.14873e-06 	-4.40364e-07 30.0003 	-6.14873e-06 	-4.40364e-07 30.0003 	-6.14873e-06 	-4.40364e-07 30.0001 	-1.83097e-07 	-9.00328e-07 30.0003 	-6.17139e-06 	-4.77984e-07 30.0003 	-6.17139e-06 	-4.77984e-07 30.0003 	-6.17139e-06 	-4.77983e-07 30.0003 	-6.17139e-06 	-4.77983e-07 30.0001 	-2.90937e-06 	-7.3147e-07 30.0003 	-6.1932e-06 	-5.14197e-07 30.0003 	-6.1932e-06 	-5.14197e-07 30.0003 	-6.1932e-06 	-5.14197e-07 30.0003 	-6.19319e-06 	-5.14197e-07 30.0001 	-2.94726e-06 	-7.75596e-07 30.0003 	-6.21416e-06 	-5.48819e-07 30.0003 	-6.21415e-06 	-5.48819e-07 30.0003 	-6.21415e-06 	-5.48819e-07 30.0003 	-6.21415e-06 	-5.48819e-07 30.0001 	-1.8465e-07 	-1.02954e-06 30.0003 	-6.23429e-06 	-5.82033e-07 30.0003 	-6.23428e-06 	-5.82033e-07 30.0003 	-6.23428e-06 	-5.82033e-07 30.0003 	-6.23428e-06 	-5.82033e-07 30.0001 	-3.02028e-06 	-8.57483e-07 30.0003 	-6.25357e-06 	-6.13874e-07 30.0003 	-6.25356e-06 	-6.13874e-07 30.0003 	-6.25356e-06 	-6.13874e-07 30.0003 	-6.25356e-06 	-6.13874e-07 30.0001 	-3.05538e-06 	-8.95489e-07 30.0003 	-6.27207e-06 	-6.44398e-07 30.0003 	-6.27207e-06 	-6.44398e-07 30.0003 	-6.27207e-06 	-6.44398e-07 30.0003 	-6.27207e-06 	-6.44398e-07 30.0001 	-1.86102e-07 	-1.14085e-06 30.0003 	-6.28984e-06 	-6.73596e-07 30.0003 	-6.28983e-06 	-6.73595e-07 30.0003 	-6.28983e-06 	-6.73595e-07 30.0003 	-6.28983e-06 	-6.73595e-07 30.0001 	-1.86565e-07 	-1.1746e-06 30.0003 	-6.30687e-06 	-7.01412e-07 30.0003 	-6.30686e-06 	-7.01411e-07 30.0003 	-6.30686e-06 	-7.01411e-07 30.0003 	-6.30686e-06 	-7.01411e-07 30.0001 	-1.87021e-07 	-1.20669e-06 30.0003 	-6.32297e-06 	-7.27841e-07 30.0003 	-6.32297e-06 	-7.27841e-07 30.0003 	-6.32297e-06 	-7.27841e-07 30.0003 	-6.32296e-06 	-7.27841e-07 30.0001 	-3.18685e-06 	-1.03101e-06 30.0003 	-6.33824e-06 	-7.52951e-07 30.0003 	-6.33824e-06 	-7.52951e-07 30.0003 	-6.33824e-06 	-7.52951e-07 30.0003 	-6.33824e-06 	-7.52951e-07 30.0001 	-1.87899e-07 	-1.26597e-06 30.0003 	-6.35277e-06 	-7.76919e-07 30.0003 	-6.35277e-06 	-7.76919e-07 30.0003 	-6.35277e-06 	-7.76919e-07 30.0003 	-6.35277e-06 	-7.76919e-07 30.0001 	-1.88317e-07 	-1.29332e-06 30.0003 	-6.36658e-06 	-7.99789e-07 30.0003 	-6.36658e-06 	-7.99789e-07 30.0003 	-6.36658e-06 	-7.99789e-07 30.0003 	-6.36658e-06 	-7.99789e-07 30.0001 	-3.27626e-06 	-1.11605e-06 30.0003 	-6.37967e-06 	-8.21517e-07 30.0003 	-6.37967e-06 	-8.21516e-07 30.0003 	-6.37967e-06 	-8.21516e-07 30.0003 	-6.37967e-06 	-8.21516e-07 30.0001 	-3.30438e-06 	-1.14153e-06 30.0003 	-6.39199e-06 	-8.4195e-07 30.0003 	-6.39199e-06 	-8.41949e-07 30.0003 	-6.39199e-06 	-8.41949e-07 30.0003 	-6.39199e-06 	-8.41949e-07 30.0001 	-1.89524e-07 	-1.36686e-06 30.0003 	-6.40363e-06 	-8.6134e-07 30.0003 	-6.40363e-06 	-8.6134e-07 30.0003 	-6.40362e-06 	-8.6134e-07 30.0003 	-6.40362e-06 	-8.6134e-07 30.0001 	-1.8991e-07 	-1.38874e-06 30.0003 	-6.41457e-06 	-8.79777e-07 30.0003 	-6.41457e-06 	-8.79777e-07 30.0003 	-6.41457e-06 	-8.79777e-07 30.0003 	-6.41457e-06 	-8.79776e-07 30.0001 	-1.9029e-07 	-1.40939e-06 30.0003 	-6.42482e-06 	-8.9726e-07 30.0003 	-6.42482e-06 	-8.9726e-07 30.0003 	-6.42482e-06 	-8.9726e-07 30.0003 	-6.42482e-06 	-8.9726e-07 30.0001 	-3.4087e-06 	-1.23052e-06 30.0003 	-6.4344e-06 	-9.13845e-07 30.0003 	-6.4344e-06 	-9.13844e-07 30.0003 	-6.4344e-06 	-9.13844e-07 30.0003 	-6.4344e-06 	-9.13844e-07 30.0001 	-3.43283e-06 	-1.24985e-06 30.0003 	-6.44331e-06 	-9.29529e-07 30.0003 	-6.44331e-06 	-9.29528e-07 30.0003 	-6.44331e-06 	-9.29528e-07 30.0003 	-6.4433e-06 	-9.29528e-07 30.0001 	-1.91385e-07 	-1.46455e-06 30.0003 	-6.45159e-06 	-9.44382e-07 30.0003 	-6.45159e-06 	-9.44382e-07 30.0003 	-6.45159e-06 	-9.44382e-07 30.0003 	-6.45159e-06 	-9.44381e-07 30.0001 	-3.47891e-06 	-1.28534e-06 30.0003 	-6.45927e-06 	-9.58386e-07 30.0003 	-6.45927e-06 	-9.58386e-07 30.0003 	-6.45927e-06 	-9.58385e-07 30.0003 	-6.45927e-06 	-9.58385e-07 30.0001 	-3.50095e-06 	-1.30161e-06 30.0003 	-6.46636e-06 	-9.71677e-07 30.0003 	-6.46636e-06 	-9.71677e-07 30.0003 	-6.46635e-06 	-9.71677e-07 30.0003 	-6.46635e-06 	-9.71676e-07 30.0001 	-1