# vtk DataFile Version 2.0
track0
ASCII
DATASET POLYDATA
POINTS 15780 float
-1.001 -0.05 0.0011
-1.0008 -0.05 0.0011
-1.0006 -0.05 0.0011
-1.0004 -0.05 0.0011
-1.0002 -0.05 0.0011
-1 -0.05 0.0011
-0.9875 -0.05 0.0011
-0.975 -0.05 0.0011
-0.9625 -0.05 0.0011
-0.95 -0.05 0.0011
-0.9375 -0.05 0.00109999
-0.925 -0.05 0.00109999
-0.9125 -0.05 0.00109999
-0.9 -0.05 0.00109999
-0.8875 -0.05 0.00109999
-0.875 -0.05 0.00109999
-0.8625 -0.05 0.00109999
-0.85 -0.05 0.00109999
-0.8375 -0.05 0.00109998
-0.825 -0.0500001 0.00109998
-0.8125 -0.0500001 0.00109998
-0.8 -0.0500001 0.00109998
-0.7875 -0.0500001 0.00109998
-0.775 -0.0500001 0.00109998
-0.7625 -0.0500001 0.00109998
-0.75 -0.0500001 0.00109998
-0.7375 -0.0500001 0.00109997
-0.725 -0.0500001 0.00109997
-0.7125 -0.0500001 0.00109997
-0.7 -0.0500001 0.00109997
-0.6875 -0.0500001 0.00109997
-0.675 -0.0500001 0.00109997
-0.6625 -0.0500001 0.00109997
-0.65 -0.0500001 0.00109996
-0.6375 -0.0500001 0.00109996
-0.625 -0.0500001 0.00109996
-0.6125 -0.0500001 0.00109996
-0.6 -0.0500001 0.00109996
-0.5875 -0.0500001 0.00109996
-0.575 -0.0500001 0.00109996
-0.5625 -0.0500001 0.00109996
-0.55 -0.0500001 0.00109995
-0.5375 -0.0500001 0.00109995
-0.525 -0.0500001 0.00109995
-0.5125 -0.0500001 0.00109995
-0.5 -0.0500001 0.00109995
-0.4875 -0.0500001 0.00109995
-0.475 -0.0500001 0.00109995
-0.4625 -0.0500001 0.00109994
-0.45 -0.0500002 0.00109994
-0.4375 -0.0500002 0.00109994
-0.425 -0.0500002 0.00109994
-0.4125 -0.0500002 0.00109994
-0.4 -0.0500002 0.00109994
-0.3875 -0.0500002 0.00109994
-0.375 -0.0500002 0.00109994
-0.3625 -0.0500002 0.00109993
-0.35 -0.0500002 0.00109993
-0.3375 -0.0500002 0.00109993
-0.325 -0.0500002 0.00109993
-0.3125 -0.0500002 0.00109993
-0.3 -0.0500002 0.00109993
-0.2875 -0.0500002 0.00109993
-0.275 -0.0500002 0.00109993
-0.2625 -0.0500002 0.00109992
-0.25 -0.0500002 0.00109992
-0.2375 -0.0500002 0.00109992
-0.225 -0.0500002 0.00109992
-0.2125 -0.0500002 0.00109992
-0.2 -0.0500002 0.00109992
-0.1875 -0.0500002 0.00109992
-0.175 -0.0500002 0.00109992
-0.1625 -0.0500002 0.00109991
-0.15 -0.0500002 0.00109991
-0.1375 -0.0500002 0.00109991
-0.125 -0.0500002 0.00109991
-0.1125 -0.0500002 0.00109991
-0.1 -0.0500002 0.00109991
-0.0875 -0.0500002 0.00109991
-0.075 -0.0500002 0.00109991
-0.0625 -0.0500002 0.00109991
-0.05 -0.0500003 0.00109991
-0.0375 -0.0500003 0.0010999
-0.025 -0.0500003 0.0010999
-0.0125 -0.0500003 0.0010999
2.10607e-13 -0.0500003 0.0010999
0.0125 -0.0500003 0.0010999
0.025 -0.0500003 0.0010999
0.0375 -0.0500003 0.0010999
0.05 -0.0500003 0.0010999
0.0625 -0.0500003 0.0010999
0.075 -0.0500003 0.0010999
0.0875 -0.0500003 0.0010999
0.1 -0.0500003 0.00109989
0.1125 -0.0500003 0.00109989
0.125 -0.0500003 0.00109989
0.1375 -0.0500003 0.00109989
0.15 -0.0500003 0.00109989
0.1625 -0.0500003 0.00109989
0.175 -0.0500003 0.00109989
0.1875 -0.0500003 0.00109989
0.2 -0.0500003 0.00109989
0.2125 -0.0500003 0.00109989
0.225 -0.0500003 0.00109989
0.2375 -0.0500003 0.00109989
0.25 -0.0500003 0.00109989
0.2625 -0.0500003 0.00109988
0.275 -0.0500003 0.00109988
0.2875 -0.0500003 0.00109988
0.3 -0.0500003 0.00109988
0.3125 -0.0500003 0.00109988
0.325 -0.0500003 0.00109988
0.3375 -0.0500003 0.00109988
0.35 -0.0500003 0.00109988
0.3625 -0.0500003 0.00109988
0.375 -0.0500003 0.00109988
0.3875 -0.0500003 0.00109988
0.4 -0.0500004 0.00109988
0.4125 -0.0500004 0.00109988
0.425 -0.0500004 0.00109988
0.4375 -0.0500004 0.00109988
0.45 -0.0500004 0.00109988
0.4625 -0.0500004 0.00109988
0.475 -0.0500004 0.00109988
0.4875 -0.0500004 0.00109988
0.5 -0.0500004 0.00109988
0.5125 -0.0500004 0.00109988
0.525 -0.0500004 0.00109988
0.5375 -0.0500004 0.00109988
0.55 -0.0500004 0.00109988
0.5625 -0.0500004 0.00109988
0.575 -0.0500004 0.00109987
0.5875 -0.0500004 0.00109987
0.6 -0.0500004 0.00109987
0.6125 -0.0500004 0.00109987
0.625 -0.0500004 0.00109987
0.6375 -0.0500004 0.00109987
0.65 -0.0500004 0.00109987
0.6625 -0.0500004 0.00109987
0.675 -0.0500004 0.00109987
0.6875 -0.0500004 0.00109987
0.7 -0.0500004 0.00109987
0.7125 -0.0500004 0.00109987
0.725 -0.0500004 0.00109987
0.7375 -0.0500004 0.00109987
0.75 -0.0500004 0.00109987
0.7625 -0.0500004 0.00109987
0.775 -0.0500004 0.00109987
0.7875 -0.0500004 0.00109987
0.8 -0.0500004 0.00109987
0.8125 -0.0500004 0.00109987
0.825 -0.0500004 0.00109987
0.8375 -0.0500004 0.00109987
0.85 -0.0500004 0.00109987
0.8625 -0.0500004 0.00109987
0.875 -0.0500004 0.00109987
0.8875 -0.0500004 0.00109987
0.9 -0.0500004 0.00109987
0.9125 -0.0500005 0.00109988
0.925 -0.0500005 0.00109988
0.9375 -0.0500005 0.00109988
0.95 -0.0500005 0.00109988
0.9625 -0.0500005 0.00109988
0.975 -0.0500005 0.00109988
0.9875 -0.0500005 0.00109988
1 -0.0500005 0.00109988
1.0125 -0.0500005 0.00109988
1.025 -0.0500005 0.00109988
1.0375 -0.0500005 0.00109988
1.05 -0.0500005 0.00109988
1.0625 -0.0500005 0.00109988
1.075 -0.0500005 0.00109988
1.0875 -0.0500005 0.00109988
1.1 -0.0500005 0.00109988
1.1125 -0.0500005 0.00109988
1.125 -0.0500005 0.00109988
1.1375 -0.0500005 0.00109988
1.15 -0.0500005 0.00109988
1.1625 -0.0500005 0.00109988
1.175 -0.0500005 0.00109988
1.1875 -0.0500005 0.00109988
1.2 -0.0500005 0.00109988
1.2125 -0.0500005 0.00109988
1.225 -0.0500005 0.00109988
1.2375 -0.0500005 0.00109989
1.25 -0.0500005 0.00109989
1.2625 -0.0500005 0.00109989
1.275 -0.0500005 0.00109989
1.2875 -0.0500005 0.00109989
1.3 -0.0500005 0.00109989
1.3125 -0.0500005 0.00109989
1.325 -0.0500005 0.00109989
1.3375 -0.0500005 0.00109989
1.35 -0.0500005 0.00109989
1.3625 -0.0500005 0.00109989
1.375 -0.0500005 0.00109989
1.3875 -0.0500005 0.00109989
1.4 -0.0500005 0.00109989
1.4125 -0.0500005 0.00109989
1.425 -0.0500005 0.00109989
1.4375 -0.0500005 0.0010999
1.45 -0.0500005 0.0010999
1.4625 -0.0500005 0.0010999
1.475 -0.0500005 0.0010999
1.4875 -0.0500005 0.0010999
1.5 -0.0500006 0.0010999
1.5125 -0.0500006 0.0010999
1.525 -0.0500006 0.0010999
1.5375 -0.0500006 0.0010999
1.55 -0.0500006 0.0010999
1.5625 -0.0500006 0.0010999
1.575 -0.0500006 0.0010999
1.5875 -0.0500006 0.0010999
1.6 -0.0500006 0.0010999
1.6125 -0.0500006 0.00109991
1.625 -0.0500006 0.00109991
1.6375 -0.0500006 0.00109991
1.65 -0.0500006 0.00109991
1.6625 -0.0500006 0.00109991
1.675 -0.0500006 0.00109991
1.6875 -0.0500006 0.00109991
1.7 -0.0500006 0.00109991
1.7125 -0.0500006 0.00109991
1.725 -0.0500006 0.00109991
1.7375 -0.0500006 0.00109991
1.75 -0.0500006 0.00109991
1.7625 -0.0500006 0.00109992
1.775 -0.0500006 0.00109992
1.7875 -0.0500006 0.00109992
1.8 -0.0500006 0.00109992
1.8125 -0.0500006 0.00109992
1.825 -0.0500006 0.00109992
1.8375 -0.0500006 0.00109992
1.85 -0.0500006 0.00109992
1.8625 -0.0500006 0.00109992
1.875 -0.0500006 0.00109992
1.8875 -0.0500006 0.00109992
1.9 -0.0500006 0.00109992
1.9125 -0.0500006 0.00109993
1.925 -0.0500006 0.00109993
1.9375 -0.0500006 0.00109993
1.95 -0.0500006 0.00109993
1.9625 -0.0500006 0.00109993
1.975 -0.0500006 0.00109993
1.9875 -0.0500006 0.00109993
2 -0.0500006 0.00109993
2.0125 -0.0500006 0.00109993
2.025 -0.0500006 0.00109993
2.0375 -0.0500006 0.00109993
2.05 -0.0500006 0.00109993
2.0625 -0.0500006 0.00109993
2.075 -0.0500006 0.00109994
2.0875 -0.0500006 0.00109994
2.1 -0.0500006 0.00109994
2.1125 -0.0500006 0.00109994
2.125 -0.0500006 0.00109994
2.1375 -0.0500006 0.00109994
2.15 -0.0500006 0.00109994
2.1625 -0.0500006 0.00109994
2.175 -0.0500007 0.00109994
2.1875 -0.0500007 0.00109994
2.2 -0.0500007 0.00109994
2.2125 -0.0500007 0.00109994
2.225 -0.0500007 0.00109995
2.2375 -0.0500007 0.00109995
2.25 -0.0500007 0.00109995
2.2625 -0.0500007 0.00109995
2.275 -0.0500007 0.00109995
2.2875 -0.0500007 0.00109995
2.3 -0.0500007 0.00109995
2.3125 -0.0500007 0.00109995
2.325 -0.0500007 0.00109995
2.3375 -0.0500007 0.00109995
2.35 -0.0500007 0.00109995
2.3625 -0.0500007 0.00109995
2.375 -0.0500007 0.00109995
2.3875 -0.0500007 0.00109996
2.4 -0.0500007 0.00109996
2.4125 -0.0500007 0.00109996
2.425 -0.0500007 0.00109996
2.4375 -0.0500007 0.00109996
2.45 -0.0500007 0.00109996
2.4625 -0.0500007 0.00109996
2.475 -0.0500007 0.00109996
2.4875 -0.0500007 0.00109996
2.5 -0.0500007 0.00109996
2.5125 -0.0500007 0.00109996
2.525 -0.0500007 0.00109996
2.5375 -0.0500007 0.00109996
2.55 -0.0500007 0.00109996
2.5625 -0.0500007 0.00109997
2.575 -0.0500007 0.00109997
2.5875 -0.0500007 0.00109997
2.6 -0.0500007 0.00109997
2.6125 -0.0500007 0.00109997
2.625 -0.0500007 0.00109997
2.6375 -0.0500007 0.00109997
2.65 -0.0500007 0.00109997
2.6625 -0.0500007 0.00109997
2.675 -0.0500007 0.00109997
2.6875 -0.0500007 0.00109997
2.7 -0.0500007 0.00109997
2.7125 -0.0500007 0.00109997
2.725 -0.0500007 0.00109997
2.7375 -0.0500007 0.00109997
2.75 -0.0500007 0.00109997
2.7625 -0.0500007 0.00109998
2.775 -0.0500007 0.00109998
2.7875 -0.0500007 0.00109998
2.8 -0.0500007 0.00109998
2.8125 -0.0500007 0.00109998
2.825 -0.0500007 0.00109998
2.8375 -0.0500007 0.00109998
2.85 -0.0500007 0.00109998
2.8625 -0.0500008 0.00109998
2.875 -0.0500008 0.00109998
2.8875 -0.0500008 0.00109998
2.9 -0.0500008 0.00109998
2.9125 -0.0500008 0.00109998
2.925 -0.0500008 0.00109998
2.9375 -0.0500008 0.00109998
2.95 -0.0500008 0.00109998
2.9625 -0.0500008 0.00109998
2.975 -0.0500008 0.00109998
2.9875 -0.0500008 0.00109998
3 -0.0500008 0.00109998
3.0125 -0.0500008 0.00109999
3.025 -0.0500008 0.00109999
3.0375 -0.0500008 0.00109999
3.05 -0.0500008 0.00109999
3.0625 -0.0500008 0.00109999
3.075 -0.0500008 0.00109999
3.0875 -0.0500008 0.00109999
3.1 -0.0500008 0.00109999
3.1125 -0.0500008 0.00109999
3.125 -0.0500008 0.00109999
3.1375 -0.0500008 0.00109999
3.15 -0.0500008 0.00109999
3.1625 -0.0500008 0.00109999
3.175 -0.0500008 0.00109999
3.1875 -0.0500008 0.00109999
3.2 -0.0500008 0.00109999
3.2125 -0.0500008 0.00109999
3.225 -0.0500008 0.00109999
3.2375 -0.0500008 0.00109999
3.25 -0.0500008 0.00109999
3.2625 -0.0500008 0.00109999
3.275 -0.0500008 0.00109999
3.2875 -0.0500008 0.00109999
3.3 -0.0500008 0.00109999
3.3125 -0.0500008 0.00109999
3.325 -0.0500008 0.00109999
3.3375 -0.0500008 0.00109999
3.35 -0.0500008 0.0011
3.3625 -0.0500008 0.0011
[...]
POINT_DATA 15780
 FIELD attributes 1
U 3 15780 float
30.0002 	-7.01776e-06 	-6.30586e-06 30.0002 	-6.84327e-06 	-6.51453e-06 30.0002 	-6.66878e-06 	-6.72319e-06 30.0002 	-6.4943e-06 	-6.93186e-06 30.0002 	-6.31981e-06 	-7.14053e-06 30.0002 	-6.14533e-06 	-7.34919e-06 30.0004 	-1.23849e-05 	-1.26101e-06 30.0004 	-1.23849e-05 	-1.26101e-06 30.0004 	-1.23849e-05 	-1.26101e-06 30.0004 	-1.23849e-05 	-1.26101e-06 30.0002 	-7.04075e-08 	-6.84365e-06 30.0005 	-1.07088e-05 	-1.68707e-06 30.0005 	-1.07088e-05 	-1.68707e-06 30.0005 	-1.07088e-05 	-1.68707e-06 30.0005 	-1.07088e-05 	-1.68707e-06 30.0002 	-7.20776e-08 	-6.59607e-06 30.0005 	-9.9582e-06 	-2.08025e-06 30.0005 	-9.95819e-06 	-2.08025e-06 30.0005 	-9.95818e-06 	-2.08024e-06 30.0005 	-9.95817e-06 	-2.08024e-06 30.0003 	-4.59292e-06 	-6.24724e-06 30.0005 	-9.69141e-06 	-2.34897e-06 30.0005 	-9.6914e-06 	-2.34897e-06 30.0005 	-9.6914e-06 	-2.34897e-06 30.0005 	-9.69139e-06 	-2.34897e-06 30.0003 	-7.56491e-08 	-6.57614e-06 30.0005 	-9.5232e-06 	-2.49785e-06 30.0005 	-9.52319e-06 	-2.49785e-06 30.0005 	-9.52318e-06 	-2.49784e-06 30.0005 	-9.52317e-06 	-2.49784e-06 30.0003 	-7.73936e-08 	-6.52626e-06 30.0005 	-9.38682e-06 	-2.55609e-06 30.0005 	-9.38681e-06 	-2.55609e-06 30.0005 	-9.38681e-06 	-2.55608e-06 30.0005 	-9.3868e-06 	-2.55608e-06 30.0003 	-4.26671e-06 	-6.08528e-06 30.0005 	-9.27939e-06 	-2.55831e-06 30.0005 	-9.27938e-06 	-2.55831e-06 30.0005 	-9.27937e-06 	-2.55831e-06 30.0005 	-9.27936e-06 	-2.5583e-06 30.0003 	-4.19909e-06 	-5.97789e-06 30.0006 	-9.18716e-06 	-2.53045e-06 30.0006 	-9.18715e-06 	-2.53044e-06 30.0006 	-9.18715e-06 	-2.53044e-06 30.0006 	-9.18714e-06 	-2.53044e-06 30.0003 	-8.26625e-08 	-6.20126e-06 30.0006 	-9.09708e-06 	-2.4812e-06 30.0006 	-9.09707e-06 	-2.4812e-06 30.0006 	-9.09706e-06 	-2.48119e-06 30.0006 	-9.09705e-06 	-2.48119e-06 30.0003 	-8.44072e-08 	-6.05423e-06 30.0006 	-9.00461e-06 	-2.41362e-06 30.0006 	-9.0046e-06 	-2.41362e-06 30.0006 	-9.0046e-06 	-2.41362e-06 30.0006 	-9.00459e-06 	-2.41362e-06 30.0003 	-8.61582e-08 	-5.88782e-06 30.0006 	-8.90846e-06 	-2.32973e-06 30.0006 	-8.90845e-06 	-2.32973e-06 30.0006 	-8.90844e-06 	-2.32973e-06 30.0006 	-8.90844e-06 	-2.32973e-06 30.0003 	-3.93765e-06 	-5.36347e-06 30.0006 	-8.80841e-06 	-2.23276e-06 30.0006 	-8.8084e-06 	-2.23275e-06 30.0006 	-8.80839e-06 	-2.23275e-06 30.0006 	-8.80838e-06 	-2.23275e-06 30.0003 	-3.86385e-06 	-5.16475e-06 30.0006 	-8.7041e-06 	-2.12415e-06 30.0006 	-8.70409e-06 	-2.12415e-06 30.0006 	-8.70409e-06 	-2.12415e-06 30.0006 	-8.70408e-06 	-2.12415e-06 30.0003 	-9.14041e-08 	-5.28457e-06 30.0006 	-8.59591e-06 	-2.00508e-06 30.0006 	-8.59591e-06 	-2.00508e-06 30.0006 	-8.5959e-06 	-2.00508e-06 30.0006 	-8.59589e-06 	-2.00508e-06 30.0003 	-3.70423e-06 	-4.7194e-06 30.0007 	-8.48454e-06 	-1.87668e-06 30.0007 	-8.48453e-06 	-1.87668e-06 30.0007 	-8.48452e-06 	-1.87668e-06 30.0007 	-8.48452e-06 	-1.87668e-06 30.0003 	-3.61914e-06 	-4.47431e-06 30.0007 	-8.37119e-06 	-1.73885e-06 30.0007 	-8.37118e-06 	-1.73884e-06 30.0007 	-8.37118e-06 	-1.73884e-06 30.0007 	-8.37117e-06 	-1.73884e-06 30.0004 	-9.66421e-08 	-4.54319e-06 30.0007 	-8.25963e-06 	-1.59804e-06 30.0007 	-8.25962e-06 	-1.59804e-06 30.0007 	-8.25962e-06 	-1.59804e-06 30.0007 	-8.25961e-06 	-1.59804e-06 30.0004 	-9.83909e-08 	-4.27124e-06 30.0007 	-8.14763e-06 	-1.46324e-06 30.0007 	-8.14763e-06 	-1.46324e-06 30.0007 	-8.14762e-06 	-1.46324e-06 30.0007 	-8.14762e-06 	-1.46324e-06 30.0004 	-1.00133e-07 	-3.98928e-06 30.0007 	-8.01957e-06 	-1.32073e-06 30.0007 	-8.01957e-06 	-1.32073e-06 30.0007 	-8.01956e-06 	-1.32073e-06 30.0007 	-8.01956e-06 	-1.32072e-06 30.0004 	-3.25081e-06 	-3.37796e-06 30.0007 	-7.88078e-06 	-1.16801e-06 30.0007 	-7.88077e-06 	-1.16801e-06 30.0007 	-7.88077e-06 	-1.16801e-06 30.0007 	-7.88077e-06 	-1.16801e-06 30.0004 	-1.03576e-07 	-3.40289e-06 30.0007 	-7.74486e-06 	-1.00788e-06 30.0007 	-7.74486e-06 	-1.00788e-06 30.0007 	-7.74486e-06 	-1.00788e-06 30.0007 	-7.74485e-06 	-1.00788e-06 30.0004 	-1.05299e-07 	-3.10328e-06 30.0007 	-7.61074e-06 	-8.41869e-07 30.0007 	-7.61074e-06 	-8.41869e-07 30.0007 	-7.61073e-06 	-8.41868e-07 30.0007 	-7.61073e-06 	-8.41868e-07 30.0004 	-2.93167e-06 	-2.48789e-06 30.0007 	-7.47497e-06 	-6.70218e-07 30.0007 	-7.47497e-06 	-6.70218e-07 30.0007 	-7.47497e-06 	-6.70218e-07 30.0007 	-7.47497e-06 	-6.70218e-07 30.0004 	-2.82521e-06 	-2.18314e-06 30.0007 	-7.34286e-06 	-4.97066e-07 30.0007 	-7.34286e-06 	-4.97066e-07 30.0007 	-7.34286e-06 	-4.97065e-07 30.0007 	-7.34286e-06 	-4.97065e-07 30.0004 	-1.10411e-07 	-2.17113e-06 30.0007 	-7.21508e-06 	-3.17338e-07 30.0007 	-7.21508e-06 	-3.17338e-07 30.0007 	-7.21508e-06 	-3.17338e-07 30.0007 	-7.21508e-06 	-3.17338e-07 30.0004 	-1.12097e-07 	-1.85339e-06 30.0007 	-7.09835e-06 	-1.38233e-07 30.0007 	-7.09835e-06 	-1.38233e-07 30.0007 	-7.09835e-06 	-1.38233e-07 30.0007 	-7.09835e-06 	-1.38233e-07 30.0004 	-1.13761e-07 	-1.54905e-06 30.0007 	-6.98503e-06 	4.08369e-08 30.0007 	-6.98503e-06 	4.08369e-08 30.0007 	-6.98503e-06 	4.08369e-08 30.0007 	-6.98503e-06 	4.08369e-08 30.0004 	-2.43879e-06 	-9.58519e-07 30.0007 	-6.87143e-06 	2.14648e-07 30.0007 	-6.87143e-06 	2.14648e-07 30.0007 	-6.87143e-06 	2.14648e-07 30.0007 	-6.87143e-06 	2.14648e-07 30.0004 	-2.34719e-06 	-6.82318e-07 30.0007 	-6.75332e-06 	3.90701e-07 30.0007 	-6.75332e-06 	3.90701e-07 30.0007 	-6.75332e-06 	3.90701e-07 30.0007 	-6.75332e-06 	3.90701e-07 30.0004 	-1.18763e-07 	-7.09794e-07 30.0007 	-6.64286e-06 	5.64358e-07 30.0007 	-6.64286e-06 	5.64359e-07 30.0007 	-6.64286e-06 	5.64359e-07 30.0007 	-6.64286e-06 	5.64359e-07 30.0004 	-2.16688e-06 	-1.45458e-07 30.0007 	-6.53588e-06 	7.27386e-07 30.0007 	-6.53588e-06 	7.27387e-07 30.0007 	-6.53588e-06 	7.27387e-07 30.0007 	-6.53588e-06 	7.27387e-07 30.0004 	-2.08121e-06 	1.13817e-07 30.0007 	-6.43057e-06 	8.78823e-07 30.0007 	-6.43057e-06 	8.78823e-07 30.0007 	-6.43058e-06 	8.78824e-07 30.0007 	-6.43058e-06 	8.78824e-07 30.0004 	-1.23697e-07 	7.05537e-08 30.0007 	-6.32303e-06 	1.01778e-06 30.0007 	-6.32303e-06 	1.01778e-06 30.0007 	-6.32304e-06 	1.01778e-06 30.0007 	-6.32304e-06 	1.01778e-06 30.0004 	-1.25292e-07 	3.15786e-07 30.0007 	-6.21666e-06 	1.14062e-06 30.0007 	-6.21667e-06 	1.14062e-06 30.0007 	-6.21667e-06 	1.14062e-06 30.0007 	-6.21667e-06 	1.14062e-06 30.0004 	-1.26875e-07 	5.45507e-07 30.0007 	-6.11539e-06 	1.25632e-06 30.0007 	-6.11539e-06 	1.25632e-06 30.0007 	-6.1154e-06 	1.25632e-06 30.0007 	-6.1154e-06 	1.25632e-06 30.0004 	-1.7644e-06 	1.03206e-06 30.0007 	-6.02265e-06 	1.37127e-06 30.0007 	-6.02265e-06 	1.37127e-06 30.0007 	-6.02266e-06 	1.37127e-06 30.0007 	-6.02266e-06 	1.37127e-06 30.0004 	-1.29969e-07 	9.36926e-07 30.0007 	-5.94298e-06 	1.4885e-06 30.0007 	-5.94298e-06 	1.4885e-06 30.0007 	-5.94298e-06 	1.4885e-06 30.0007 	-5.94299e-06 	1.4885e-06 30.0004 	-1.31467e-07 	1.10455e-06 30.0007 	-5.87175e-06 	1.59289e-06 30.0007 	-5.87175e-06 	1.59289e-06 30.0007 	-5.87176e-06 	1.59289e-06 30.0007 	-5.87176e-06 	1.59289e-06 30.0004 	-1.59149e-06 	1.53876e-06 30.0007 	-5.80212e-06 	1.67932e-06 30.0007 	-5.80213e-06 	1.67932e-06 30.0007 	-5.80213e-06 	1.67932e-06 30.0007 	-5.80213e-06 	1.67932e-06 30.0003 	-1.54426e-06 	1.6782e-06 30.0007 	-5.73406e-06 	1.75012e-06 30.0007 	-5.73406e-06 	1.75012e-06 30.0007 	-5.73407e-06 	1.75012e-06 30.0007 	-5.73407e-06 	1.75012e-06 30.0003 	-1.36142e-07 	1.52472e-06 30.0006 	-5.66889e-06 	1.80982e-06 30.0006 	-5.6689e-06 	1.80982e-06 30.0006 	-5.6689e-06 	1.80982e-06 30.0006 	-5.66891e-06 	1.80982e-06 30.0003 	-1.37676e-07 	1.63226e-06 30.0006 	-5.60879e-06 	1.85995e-06 30.0006 	-5.60879e-06 	1.85996e-06 30.0006 	-5.6088e-06 	1.85996e-06 30.0006 	-5.6088e-06 	1.85996e-06 30.0003 	-1.39124e-07 	1.72399e-06 30.0006 	-5.55445e-06 	1.90045e-06 30.0006 	-5.55446e-06 	1.90045e-06 30.0006 	-5.55446e-06 	1.90045e-06 30.0006 	-5.55446e-06 	1.90045e-06 30.0003 	-1.38886e-06 	2.07103e-06 30.0006 	-5.50558e-06 	1.93111e-06 30.0006 	-5.50558e-06 	1.93111e-06 30.0006 	-5.50558e-06 	1.93111e-06 30.0006 	-5.50559e-06 	1.93111e-06 30.0003 	-1.36181e-06 	2.13096e-06 30.0006 	-5.4618e-06 	1.95185e-06 30.0006 	-5.46181e-06 	1.95185e-06 30.0006 	-5.46181e-06 	1.95185e-06 30.0006 	-5.46181e-06 	1.95185e-06 30.0003 	-1.43082e-07 	1.90826e-06 30.0006 	-5.42296e-06 	1.96279e-06 30.0006 	-5.42297e-06 	1.9628e-06 30.0006 	-5.42297e-06 	1.9628e-06 30.0006 	-5.42297e-06 	1.9628e-06 30.0003 	-1.32337e-06 	2.20766e-06 30.0006 	-5.38895e-06 	1.96432e-06 30.0006 	-5.38896e-06 	1.96432e-06 30.0006 	-5.38896e-06 	1.96433e-06 30.0006 	-5.38897e-06 	1.96433e-06 30.0003 	-1.31158e-06 	2.22554e-06 30.0006 	-5.35972e-06 	1.95692e-06 30.0006 	-5.35973e-06 	1.95692e-06 30.0006 	-5.35973e-06 	1.95692e-06 30.0006 	-5.35973e-06 	1.95692e-06 30.0003 	-1.46866e-07 	1.96617e-06 30.0005 	-5.33517e-06 	1.94112e-06 30.0005 	-5.33517e-06 	1.94112e-06 30.0005 	-5.33518e-06 	1.94112e-06 30.0005 	-5.33518e-06 	1.94112e-06 30.0003 	-1.48082e-07 	1.96057e-06 30.0005 	-5.31513e-06 	1.91792e-06 30.0005 	-5.31513e-06 	1.91793e-06 30.0005 	-5.31513e-06 	1.91793e-06 30.0005 	-5.31514e-06 	1.91793e-06 30.0003 	-1.49274e-07 	1.94424e-06 30.0005 	-5.29949e-06 	1.88799e-06 30.0005 	-5.29949e-06 	1.88799e-06 30.0005 	-5.29949e-06 	1.88799e-06 30.0005 	-5.2995e-06 	1.88799e-06 30.0003 	-1.30893e-06 	2.179e-06 30.0005 	-5.28809e-06 	1.85189e-06 30.0005 	-5.2881e-06 	1.85189e-06 30.0005 	-5.2881e-06 	1.85189e-06 30.0005 	-5.2881e-06 	1.85189e-06 30.0003 	-1.51576e-07 	1.8823e-06 30.0005 	-5.28076e-06 	1.81006e-06 30.0005 	-5.28077e-06 	1.81006e-06 30.0005 	-5.28077e-06 	1.81006e-06 30.0005 	-5.28077e-06 	1.81007e-06 30.0003 	-1.52676e-07 	1.83818e-06 30.0005 	-5.27728e-06 	1.76314e-06 30.0005 	-5.27728e-06 	1.76314e-06 30.0005 	-5.27729e-06 	1.76314e-06 30.0005 	-5.27729e-06 	1.76314e-06 30.0003 	-1.3481e-06 	2.04408e-06 30.0005 	-5.27741e-06 	1.7116e-06 30.0005 	-5.27741e-06 	1.7116e-06 30.0005 	-5.27742e-06 	1.7116e-06 30.0005 	-5.27742e-06 	1.7116e-06 30.0003 	-1.36815e-06 	1.98424e-06 30.0005 	-5.28094e-06 	1.65596e-06 30.0005 	-5.28095e-06 	1.65596e-06 30.0005 	-5.28095e-06 	1.65597e-06 30.0005 	-5.28095e-06 	1.65597e-06 30.0002 	-1.55838e-07 	1.66281e-06 30.0005 	-5.28771e-06 	1.59665e-06 30.0005 	-5.28771e-06 	1.59665e-06 30.0005 	-5.28771e-06 	1.59665e-06 30.0005 	-5.28772e-06 	1.59665e-06 30.0002 	-1.5688e-07 	1.59256e-06 30.0004 	-5.29763e-06 	1.53412e-06 30.0004 	-5.29764e-06 	1.53412e-06 30.0004 	-5.29764e-06 	1.53412e-06 30.0004 	-5.29764e-06 	1.53412e-06 30.0002 	-1.57945e-07 	1.51769e-06 30.0004 	-5.31055e-06 	1.46886e-06 30.0004 	-5.31055e-06 	1.46886e-06 30.0004 	-5.31055e-06 	1.46886e-06 30.0004 	-5.31056e-06 	1.46886e-06 30.0002 	-1.47978e-06 	1.69063e-06 30.0004 	-5.32606e-06 	1.4014e-06 30.0004 	-5.32606e-06 	1.4014e-06 30.0004 	-5.32606e-06 	1.4014e-06 30.0004 	-5.32607e-06 	1.4014e-06 30.0002 	-1.51429e-06 	1.60714e-06 30.0004 	-5.34394e-06 	1.33215e-06 30.0004 	-5.34394e-06 	1.33215e-06 30.0004 	-5.34395e-06 	1.33215e-06 30.0004 	-5.34395e-06 	1.33215e-06 30.0002 	-1.61172e-07 	1.27187e-06 30.0004 	-5.36395e-06 	1.26144e-06 30.0004 	-5.36395e-06 	1.26144e-06 30.0004 	-5.36396e-06 	1.26144e-06 30.0004 	-5.36396e-06 	1.26144e-06 30.0002 	-1.58962e-06 	1.43251e-06 30.0004 	-5.38575e-06 	1.18977e-06 30.0004 	-5.38575e-06 	1.18977e-06 30.0004 	-5.38576e-06 	1.18977e-06 30.0004 	-5.38576e-06 	1.18977e-06 30.0002 	-1.63011e-06 	1.34243e-06 30.0004 	-5.40935e-06 	1.11743e-06 30.0004 	-5.40935e-06 	1.11743e-06 30.0004 	-5.40936e-06 	1.11743e-06 30.0004 	-5.40936e-06 	1.11743e-06 30.0002 	-1.6419e-07 	1.00609e-06 30.0004 	-5.43451e-06 	1.04476e-06 30.0004 	-5.43451e-06 	1.04476e-06 30.0004 	-5.43451e-06 	1.04476e-06 30.0004 	-5.43451e-06 	1.04476e-06 30.0002 	-1.65146e-07 	9.15615e-07 30.0004 	-5.46014e-06 	9.72227e-07 30.0004 	-5.46014e-06 	9.72227e-07 30.0004 	-5.46015e-06 	9.72228e-07 30.0004 	-5.46015e-06 	9.72228e-07 30.0002 	-1.66048e-07 	8.24993e-07 30.0004 	-5.48616e-06 	8.99449e-07 30.0004 	-5.48617e-06 	8.9945e-07 30.0004 	-5.48617e-06 	8.9945e-07 30.0004 	-5.48617e-06 	8.9945e-07 30.0002 	-1.80702e-06 	9.75442e-07 30.0004 	-5.51293e-06 	8.25919e-07 30.0004 	-5.51293e-06 	8.25919e-07 30.0004 	-5.51293e-06 	8.2592e-07 30.0004 	-5.51293e-06 	8.2592e-07 30.0002 	-1.67746e-07 	6.43628e-07 30.0003 	-5.54267e-06 	7.51961e-07 30.0003 	-5.54267e-06 	7.51961e-07 30.0003 	-5.54268e-06 	7.51961e-07 30.0003 	-5.54268e-06 	7.51962e-07 30.0002 	-1.68584e-07 	5.52635e-07 30.0003 	-5.57714e-06 	6.77419e-07 30.0003 	-5.57714e-06 	6.7742e-07 30.0003 	-5.57715e-06 	6.7742e-07 30.0003 	-5.57715e-06 	6.7742e-07 30.0002 	-1.95538e-06 	7.01339e-07 30.0003 	-5.61398e-06 	6.0435e-07 30.0003 	-5.61398e-06 	6.0435e-07 30.0003 	-5.61399e-06 	6.0435e-07 30.0003 	-5.61399e-06 	6.0435e-07 30.0002 	-2.00758e-06 	6.11709e-07 30.0003 	-5.65012e-06 	5.34642e-07 30.0003 	-5.65013e-06 	5.34642e-07 30.0003 	-5.65013e-06 	5.34642e-07 30.0003 	-5.65013e-06 	5.34642e-07 30.0002 	-1.71085e-07 	2.80938e-07 30.0003 	-5.68124e-06 	4.67622e-07 30.0003 	-5.68124e-06 	4.67622e-07 30.0003 	-5.68124e-06 	4.67622e-07 30.0003 	-5.68124e-06 	4.67622e-07 30.0002 	-1.71918e-07 	1.97325e-07 30.0003 	-5.70966e-06 	4.03182e-07 30.0003 	-5.70966e-06 	4.03182e-07 30.0003 	-5.70966e-06 	4.03182e-07 30.0003 	-5.70966e-06 	4.03182e-07 30.0002 	-1.72716e-07 	1.16396e-07 30.0003 	-5.73782e-06 	3.39218e-07 30.0003 	-5.73782e-06 	3.39218e-07 30.0003 	-5.73782e-06 	3.39218e-07 30.0003 	-5.73782e-06 	3.39218e-07 30.0002 	-2.20086e-06 	2.74112e-07 30.0003 	-5.76579e-06 	2.7525e-07 30.0003 	-5.76579e-06 	2.7525e-07 30.0003 	-5.76579e-06 	2.7525e-07 30.0003 	-5.76579e-06 	2.75251e-07 30.0002 	-2.24779e-06 	1.96371e-07 30.0003 	-5.79262e-06 	2.10775e-07 30.0003 	-5.79262e-06 	2.10775e-07 30.0003 	-5.79262e-06 	2.10775e-07 30.0003 	-5.79262e-06 	2.10775e-07 30.0002 	-1.74924e-07 	-1.09144e-07 30.0003 	-5.82068e-06 	1.48778e-07 30.0003 	-5.82068e-06 	1.48778e-07 30.0003 	-5.82068e-06 	1.48778e-07 30.0003 	-5.82068e-06 	1.48778e-07 30.0002 	-2.34161e-06 	4.46923e-08 30.0003 	-5.84993e-06 	8.99837e-08 30.0003 	-5.84994e-06 	8.99837e-08 30.0003 	-5.84994e-06 	8.99837e-08 30.0003 	-5.84994e-06 	8.99837e-08 30.0002 	-2.38892e-06 	-2.90806e-08 30.0003 	-5.88037e-06 	3.48105e-08 30.0003 	-5.88037e-06 	3.48105e-08 30.0003 	-5.88037e-06 	3.48105e-08 30.0003 	-5.88037e-06 	3.48105e-08 30.0002 	-1.76967e-07 	-3.30765e-07 30.0003 	-5.91223e-06 	-1.70611e-08 30.0003 	-5.91223e-06 	-1.70611e-08 30.0003 	-5.91223e-06 	-1.70611e-08 30.0003 	-5.91223e-06 	-1.70611e-08 30.0002 	-1.77619e-07 	-4.01797e-07 30.0003 	-5.94535e-06 	-6.90356e-08 30.0003 	-5.94535e-06 	-6.90356e-08 30.0003 	-5.94535e-06 	-6.90356e-08 30.0003 	-5.94535e-06 	-6.90356e-08 30.0002 	-1.78223e-07 	-4.67069e-07 30.0003 	-5.97729e-06 	-1.23296e-07 30.0003 	-5.97729e-06 	-1.23296e-07 30.0003 	-5.97729e-06 	-1.23296e-07 30.0003 	-5.97729e-06 	-1.23296e-07 30.0002 	-2.58046e-06 	-3.01356e-07 30.0003 	-6.00506e-06 	-1.77939e-07 30.0003 	-6.00506e-06 	-1.77939e-07 30.0003 	-6.00506e-06 	-1.77939e-07 30.0003 	-6.00506e-06 	-1.77939e-07 30.0002 	-1.79403e-07 	-5.84877e-07 30.0003 	-6.02921e-06 	-2.29193e-07 30.0003 	-6.02921e-06 	-2.29193e-07 30.0003 	-6.02921e-06 	-2.29193e-07 30.0003 	-6.02921e-06 	-2.29193e-07 30.0002 	-1.80012e-07 	-6.42137e-07 30.0003 	-6.05244e-06 	-2.76156e-07 30.0003 	-6.05244e-06 	-2.76156e-07 30.0003 	-6.05244e-06 	-2.76156e-07 30.0003 	-6.05244e-06 	-2.76156e-07 30.0002 	-2.70852e-06 	-4.78956e-07 30.0003 	-6.07628e-06 	-3.19639e-07 30.0003 	-6.07628e-06 	-3.19639e-07 30.0003 	-6.07628e-06 	-3.19639e-07 30.0003 	-6.07628e-06 	-3.19639e-07 30.0002 	-2.74956e-06 	-5.33999e-07 30.0003 	-6.10062e-06 	-3.61161e-07 30.0003 	-6.10062e-06 	-3.61161e-07 30.0003 	-6.10062e-06 	-3.61161e-07 30.0003 	-6.10062e-06 	-3.61161e-07 30.0002 	-1.81754e-07 	-8.03771e-07 30.0003 	-6.12467e-06 	-4.01356e-07 30.0003 	-6.12466e-06 	-4.01356e-07 30.0003 	-6.12466e-06 	-4.01356e-07 30.0003 	-6.12466e-06 	-4.01356e-07 30.0001 	-1.82297e-07 	-8.53088e-07 30.0003 	-6.14804e-06 	-4.4035e-07 30.0003 	-6.14804e-06 	-4.4035e-07 30.0003 	-6.14804e-06 	-4.40349e-07 30.0003 	-6.14804e-06 	-4.40349e-07 30.0001 	-1.82819e-07 	-9.00296e-07 30.0003 	-6.17068e-06 	-4.77974e-07 30.0003 	-6.17068e-06 	-4.77974e-07 30.0003 	-6.17067e-06 	-4.77974e-07 30.0003 	-6.17067e-06 	-4.77974e-07 30.0001 	-2.90904e-06 	-7.3143e-07 30.0003 	-6.19245e-06 	-5.1419e-07 30.0003 	-6.19245e-06 	-5.1419e-07 30.0003 	-6.19245e-06 	-5.1419e-07 30.0003 	-6.19245e-06 	-5.1419e-07 30.0001 	-2.94692e-06 	-7.75556e-07 30.0003 	-6.21346e-06 	-5.48806e-07 30.0003 	-6.21346e-06 	-5.48806e-07 30.0003 	-6.21346e-06 	-5.48806e-07 30.0003 	-6.21346e-06 	-5.48806e-07 30.0001 	-1.84348e-07 	-1.0295e-06 30.0003 	-6.23361e-06 	-5.82018e-07 30.0003 	-6.23361e-06 	-5.82018e-07 30.0003 	-6.23361e-06 	-5.82018e-07 30.0003 	-6.2336e-06 	-5.82017e-07 30.0001 	-3.01993e-06 	-8.57444e-07 30.0003 	-6.25286e-06 	-6.13863e-07 30.0003 	-6.25286e-06 	-6.13863e-07 30.0003 	-6.25286e-06 	-6.13863e-07 30.0003 	-6.25286e-06 	-6.13863e-07 30.0001 	-3.05503e-06 	-8.95452e-07 30.0003 	-6.27136e-06 	-6.44389e-07 30.0003 	-6.27136e-06 	-6.44389e-07 30.0003 	-6.27136e-06 	-6.44389e-07 30.0003 	-6.27136e-06 	-6.44389e-07 30.0001 	-1.85783e-07 	-1.14081e-06 30.0003 	-6.28921e-06 	-6.73589e-07 30.0003 	-6.28921e-06 	-6.73589e-07 30.0003 	-6.28921e-06 	-6.73589e-07 30.0003 	-6.28921e-06 	-6.73588e-07 30.0001 	-1.86253e-07 	-1.17457e-06 30.0003 	-6.30622e-06 	-7.01407e-07 30.0003 	-6.30622e-06 	-7.01407e-07 30.0003 	-6.30621e-06 	-7.01406e-07 30.0003 	-6.30621e-06 	-7.01406e-07 30.0001 	-1.86698e-07 	-1.20665e-06 30.0003 	-6.32229e-06 	-7.27842e-07 30.0003 	-6.32229e-06 	-7.27842e-07 30.0003 	-6.32228e-06 	-7.27842e-07 30.0003 	-6.32228e-06 	-7.27842e-07 30.0001 	-3.18649e-06 	-1.03098e-06 30.0003 	-6.33754e-06 	-7.52953e-07 30.0003 	-6.33754e-06 	-7.52953e-07 30.0003 	-6.33754e-06 	-7.52953e-07 30.0003 	-6.33754e-06 	-7.52953e-07 30.0001 	-1.87553e-07 	-1.26593e-06 30.0003 	-6.35207e-06 	-7.76922e-07 30.0003 	-6.35207e-06 	-7.76922e-07 30.0003 	-6.35207e-06 	-7.76922e-07 30.0003 	-6.35207e-06 	-7.76921e-07 30.0001 	-1.87975e-07 	-1.29329e-06 30.0003 	-6.36586e-06 	-7.99794e-07 30.0003 	-6.36586e-06 	-7.99794e-07 30.0003 	-6.36586e-06 	-7.99794e-07 30.0003 	-6.36585e-06 	-7.99794e-07 30.0001 	-3.27589e-06 	-1.11602e-06 30.0003 	-6.37892e-06 	-8.21526e-07 30.0003 	-6.37892e-06 	-8.21526e-07 30.0003 	-6.37892e-06 	-8.21526e-07 30.0003 	-6.37891e-06 	-8.21526e-07 30.0001 	-3.30401e-06 	-1.1415e-06 30.0003 	-6.39129e-06 	-8.4196e-07 30.0003 	-6.39129e-06 	-8.4196e-07 30.0003 	-6.39129e-06 	-8.4196e-07 30.0003 	-6.39129e-06 	-8.4196e-07 30.0001 	-1.8917e-07 	-1.36683e-06 30.0003 	-6.40292e-06 	-8.61357e-07 30.0003 	-6.40292e-06 	-8.61357e-07 30.0003 	-6.40292e-06 	-8.61357e-07 30.0003 	-6.40292e-06 	-8.61356e-07 30.0001 	-1.89555e-07 	-1.38871e-06 30.0003 	-6.41384e-06 	-8.79797e-07 30.0003 	-6.41384e-06 	-8.79797e-07 30.0003 	-6.41384e-06 	-8.79796e-07 30.0003 	-6.41384e-06 	-8.79796e-07 30.0001 	-1.89928e-07 	-1.40936e-06 30.0003 	-6.42408e-06 	-8.97287e-07 30.0003 	-6.42407e-06 	-8.97287e-07 30.0003 	-6.42407e-06 	-8.97287e-07 30.0003 	-6.42407e-06 	-8.97286e-07 30.0001 	-3.40834e-06 	-1.2305e-06 30.0003 	-6.43364e-06 	-9.13874e-07 30.0003 	-6.43363e-06 	-9.13874e-07 30.0003 	-6.43363e-06 	-9.13873e-07 30.0003 	-6.43363e-06 	-9.13873e-07 30.0001 	-3.43248e-06 	-1.24983e-06 30.0003 	-6.44262e-06 	-9.29559e-07 30.0003 	-6.44261e-06 	-9.29559e-07 30.0003 	-6.44261e-06 	-9.29559e-07 30.0003 	-6.44261e-06 	-9.29558e-07 30.0001 	-1.91051e-07 	-1.46453e-06 30.0003 	-6.45095e-06 	-9.44411e-07 30.0003 	-6.45094e-06 	-9.4441e-07 30.0003 	-6.45094e-06 	-9.4441e-07 30.0003 	-6.45094e-06 	-9.4441e-07 30.0001 	-3.4786e-06 	-1.28532e-06 30.0003 	-6.45862e-06 	-9.5842e-07 30.0003 	-6.45862e-06 	-9.5842e-07 30.0003 	-6.45861e-06 	-9.5842e-07 30.0003 	-6.45861e-06 	-9.58419e-07 30.0001 	-3.50066e-06 	-1.30159e-06 30.0003 	-6.46571e-06 	-9.71713e-07 30.0003 	-6.46571e-06 	-9.71713e-07 30.0003 	-6.46571e-06 	-9.717