# vtk DataFile Version 2.0
sampleSurface
ASCII
DATASET POLYDATA
POINTS 8354 float
1.75549e-13 0 0 1.75549e-13 0 0.01875 0.0625 0 0 -0.0625 0
0 0.0625 -5.11491e-18 0.01875 -0.0625 5.48644e-18 0.01875 1.59532e-13 -2.52877e-18 0.0806582
0.0625 0 0.0806582 -0.0625 -1.26218e-29 0.0806582 0.125 0 0 -0.125
-1.26218e-29 0 0.125 0 0.01875 -0.125 -1.26218e-29 0.01875 1.50652e-13 0
0.142566 0.125 5.1813e-18 0.0806582 -0.125 5.65082e-18 0.0806602 0.0625 1.64721e-18 0.142566
-0.0625 2.03723e-18 0.142566 0.1875 1.26218e-29 0 -0.1875 0 0 0.1875
-4.46051e-18 0.01875 -0.1875 7.89923e-20 0.01875 0.125 1.26218e-29 0.142566 -0.125 0
0.14257 0.1875 -1.26218e-29 0.0806582 -0.1875 0 0.0806602 1.48836e-13 0 0.204475
0.0625 0 0.204475 -0.0625 0 0.204475 0.1875 -4.98715e-18 0.142566 -0.1875
-1.7597e-18 0.14257 0.125 0 0.204475 -0.125 -6.71663e-18 0.204481 0.25 1.26218e-29
0 -0.25 -1.26218e-29 0 0.25 1.26218e-29 0.01875 -0.25 -1.26218e-29 0.01875
0.25 1.26218e-29 0.0806582 -0.25 4.00211e-18 0.0806627 1.54191e-13 0 0.266383 0.0625
4.23976e-18 0.266383 -0.0625 0 0.266383 0.1875 0 0.204475 -0.1875 0
0.204481 0.25 0 0.142566 -0.25 0 0.142575 0.125 0 0.266383
-0.125 1.26218e-29 0.266391 0.3125 0 0 -0.3125 -1.26218e-29 0 0.3125
3.86026e-18 0.01875 -0.3125 4.27294e-18 0.01875 0.3125 0 0.0806582 -0.3125 -1.26218e-29
0.080663 0.25 1.03525e-18 0.204475 -0.25 1.26218e-29 0.204488 0.1875 0 0.266383
-0.1875 1.37701e-18 0.266391 1.66949e-13 4.90093e-18 0.328291 -0.0625 -1.26218e-29 0.328291 0.0625
0 0.328291 0.3125 0 0.142566 -0.3125 4.27624e-18 0.142576 0.125 6.22153e-19
0.328291 -0.125 -2.07532e-18 0.328301 0.25 0 0.266383 -0.25 0 0.266401
0.3125 0 0.204475 -0.3125 1.26218e-29 0.204489 0.375 0 0 -0.375
-2.52435e-29 0 0.375 0 0.01875 -0.375 -2.52435e-29 0.01875 0.1875 0
0.328291 -0.1875 0 0.328301 0.375 6.81186e-18 0.0806582 -0.375 6.54521e-18 0.0806641
1.87544e-13 1.26218e-29 0.390199 0.0625 2.51913e-18 0.390199 -0.0625 9.79971e-20 0.390199 0.375
0 0.142566 -0.375 0 0.142578 0.125 1.26218e-29 0.390199 -0.125 0
0.390211 0.3125 3.38175e-18 0.266383 -0.3125 -1.26218e-29 0.266402 0.25 0 0.328291
-0.25 2.36409e-18 0.328314 0.375 -2.14407e-18 0.204475 -0.375 1.89573e-18 0.204492 0.1875
0 0.390199 -0.1875 -3.51018e-18 0.390211 -0.4375 -2.52435e-29 0 0.4375 4.33579e-18
0 -0.4375 5.39157e-18 0.01875 0.4375 4.33579e-18 0.01875 0.4375 0 0.0806588
-0.4375 0 0.0806641 2.16727e-13 0 0.452107 0.3125 0 0.328291 -0.3125
0 0.328315 0.0625 1.26218e-29 0.452107 -0.0625 0 0.452107 0.375 1.26218e-29
0.266383 -0.375 0 0.266406 0.4375 0 0.142568 -0.4375 -2.52658e-18 0.142578
0.25 0 0.390199 -0.25 0 0.390226 0.125 -3.39343e-18 0.452107 -0.125
-8.79568e-19 0.452121 0.4375 1.26218e-29 0.204477 -0.4375 -2.52435e-29 0.204492 0.1875 0
0.452107 -0.1875 0 0.452121 0.375 0 0.328291 -0.375 2.48192e-18 0.32832
0.3125 -4.01722e-18 0.390199 -0.3125 -2.95176e-18 0.390228 -0.5 0 0 0.5
-1.26218e-29 0 -0.5 0 0.01875 0.5 -1.26218e-29 0.01875 0.5 1.26218e-29
0.0806588 -0.5 0 0.0806641 0.4375 0 0.266385 -0.4375 -4.42667e-18 0.266406
2.55734e-13 0 0.514016 0.25 2.76043e-18 0.452107 -0.25 0 0.452139 0.0625
4.63172e-18 0.514016 -0.0625 0 0.514016 0.5 0 0.142568 -0.5 5.04871e-29
0.142578 0.125 0 0.514016 -0.125 0 0.514031 0.5 -4.53491e-18 0.204477
-0.5 -3.71825e-18 0.204492 0.375 -1.26218e-29 0.390199 -0.375 0 0.390234 0.4375
0 0.328294 -0.4375 -2.52435e-29 0.32832 0.1875 -2.52435e-29 0.514016 -0.1875 3.73614e-18
0.514031 0.3125 1.26218e-29 0.452107 -0.3125 0 0.452142 -0.5625 1.00974e-28 0
0.5625 1.26218e-29 0 -0.5625 -3.62689e-18 0.01875 0.5625 -4.16584e-18 0.01875 0.5
1.26218e-29 0.266385 -0.5 0 0.266406 0.5625 1.26218e-29 0.0806588 -0.5625 1.00974e-28
0.0806641 0.25 0 0.514016 -0.25 2.52435e-29 0.514052 3.06549e-13 0 0.575924
-0.0625 0 0.575924 0.0625 0 0.575924 0.5625 -3.21432e-18 0.142568 -0.5625
-4.40015e-18 0.142578 0.4375 3.7915e-18 0.390203 -0.4375 1.7368e-18 0.390234 0.375 7.24633e-19
0.452107 -0.375 -1.3287e-18 0.452148 0.125 -2.45194e-18 0.575924 -0.125 -6.0933e-18 0.575942
0.5 0 0.328294 -0.5 0 0.32832 0.5625 0 0.204477 -0.5625
0 0.204492 0.3125 6.76102e-18 0.514016 -0.3125 0 0.514055 0.1875 0
0.575924 -0.1875 0 0.575942 0.5625 -1.3001e-18 0.266385 -0.5625 0 0.266406
-0.625 0 0 0.625 1.26218e-29 0 -0.625 0 0.01875 0.625
1.26218e-29 0.01875 0.25 0 0.575924 -0.25 -2.90766e-18 0.575945 0.4375 -1.26218e-29
0.452112 -0.4375 0 0.452148 0.625 -4.21414e-18 0.0806588 -0.625 4.80757e-18 0.0806641
0.5 -1.26218e-29 0.390203 -0.5 0 0.390234 0.375 -1.26218e-29 0.514016 -0.375
2.52435e-29 0.514063 3.72107e-13 0 0.637832 -0.0625 4.88286e-18 0.637832 0.0625 6.77044e-18
0.637832 0.625 -6.31089e-30 0.142568 -0.625 0 0.142578 0.125 0 0.637832
-0.125 0 0.637852 0.5625 0 0.328294 -0.5625 0 0.32832 0.3125
0 0.575924 -0.3125 -2.52435e-29 0.575968 0.625 3.12974e-18 0.204477 -0.625 4.59612e-18
0.204492 0.1875 2.19058e-18 0.637832 -0.1875 -6.60238e-18 0.637852 0.5 4.92156e-18 0.452112
-0.5 -1.68639e-18 0.452148 0.4375 -1.26218e-29 0.514021 -0.4375 -5.65702e-18 0.514063 0.625
0 0.266385 -0.625 -2.01948e-28 0.266406 0.5625 9.44275e-19 0.390203 -0.5625 -6.46756e-18
0.390234 0.25 0 0.637832 -0.25 0 0.637856 0.375 -6.73569e-18 0.575924
-0.375 1.11066e-18 0.575977 0.6875 0 0 -0.6875 0 0 -0.6875
1.40717e-18 0.01875 0.6875 -3.97897e-18 0.01875 0.6875 0 0.0806588 -0.6875 0
0.0806641 4.56845e-13 3.87603e-18 0.69974 0.6875 1.27263e-18 0.142568 -0.6875 0 0.142578
-0.0625 2.52435e-29 0.69974 0.0625 2.52435e-29 0.69974 0.625 6.592e-18 0.328294 -0.625
0 0.32832 0.3125 -1.93524e-18 0.637832 -0.3125 4.04014e-18 0.637881 0.125 -4.70106e-19
0.69974 -0.125 3.12226e-18 0.699762 0.5 0 0.514021 -0.5 0 0.514063
0.6875 6.31089e-30 0.204477 -0.6875 -4.03897e-28 0.204492 0.5625 0 0.452112 -0.5625
-1.00974e-28 0.452148 0.4375 0 0.57593 -0.4375 0 0.575977 0.1875 -2.52435e-29
0.69974 -0.1875 2.52435e-29 0.699762 0.625 1.26218e-29 0.390203 -0.625 2.01948e-28 0.390234
0.6875 0 0.266385 -0.6875 -6.75978e-18 0.266406 0.375 0 0.637832 -0.375
0 0.637891 0.25 4.98213e-18 0.69974 -0.25 0 0.699767 0.75 1.26218e-29
0 -0.75 8.07794e-28 0 0.75 1.26218e-29 0.01875 -0.75 8.07794e-28 0.01875
0.75 -2.83834e-18 0.080661 -0.75 0 0.0806644 5.67701e-13 0 0.761648 0.6875
0 0.328294 -0.6875 0 0.32832 0.5625 -5.39072e-18 0.514021 -0.5625 0
0.514063 0.5 0 0.57593 -0.5 0 0.575977 0.75 0 0.142572
-0.75 8.07794e-28 0.142579 -0.0625 4.99955e-18 0.761648 0.0625 -5.04871e-29 0.761648 0.3125
2.52435e-29 0.69974 -0.3125 0 0.699795 0.625 -1.02629e-18 0.452112 -0.625 -1.62107e-19
0.452148 0.125 0 0.761648 -0.125 0 0.761672 0.4375 0 0.637838
-0.4375 4.29373e-19 0.637891 0.75 -6.31089e-30 0.204483 -0.75 -1.94537e-18 0.204493 0.1875
5.59539e-18 0.761648 -0.1875 0 0.761672 0.6875 -3.12847e-21 0.390203 -0.6875 1.7397e-18
0.390234 0.375 -7.78862e-19 0.69974 -0.375 9.53408e-20 0.699805 0.75 6.31089e-30 0.266394
-0.75 8.07794e-28 0.266408 0.25 0 0.761648 -0.25 0 0.761678 0.5625
0 0.57593 -0.5625 0 0.575977 0.625 1.26218e-29 0.514021 -0.625 0
0.514063 0.5 2.52435e-29 0.637838 -0.5 1.00974e-28 0.637891 -0.8125 0 0
0.8125 6.31089e-30 0 -0.8125 9.96706e-19 0.01875 0.8125 -5.64787e-18 0.01875 0.8125
0 0.0806623 -0.8125 -1.61559e-27 0.0806652 0.75 6.84495e-18 0.328305 -0.75 -8.07794e-28
0.328322 0.6875 -1.26218e-29 0.452112 -0.6875 0 0.452148 0.3125 0 0.761648
-0.3125 1.35227e-18 0.761708 7.16809e-13 0 0.823557 0.8125 2.44843e-18 0.142575 -0.8125
-5.09802e-18 0.142581 0.4375 0 0.699747 -0.4375 -5.04871e-29 0.699805 -0.0625 0
0.823557 0.0625 5.04871e-29 0.823557 0.125 3.3729e-18 0.823557 -0.125 -3.3446e-19 0.823582
0.8125 -6.31089e-30 0.204487 -0.8125 -1.61559e-27 0.204496 0.1875 0 0.823557 -0.1875
0 0.823582 0.75 0 0.390216 -0.75 8.07794e-28 0.390236 0.375 0
0.761648 -0.375 0 0.761719 0.625 2.89935e-18 0.57593 -0.625 2.69604e-18 0.575977
0.5625 3.66498e-18 0.637838 -0.5625 -1.66883e-18 0.637891 0.8125 -3.92683e-18 0.266399 -0.8125
0 0.266411 0.6875 1.26218e-29 0.514021 -0.6875 6.04692e-18 0.514063 0.5 3.95879e-18
0.699747 -0.5 6.89573e-18 0.699805 0.25 0 0.823557 -0.25 -5.33342e-18 0.823589
-0.875 0 0 0.875 6.31089e-30 0 -0.875 0 0.01875 0.875
6.31089e-30 0.01875 0.75 0 0.452127 -0.75 2.01392e-18 0.452151 0.8125 0
0.328312 -0.8125 -1.61559e-27 0.328327 0.4375 -1.09521e-18 0.761656 -0.4375 0 0.761719
0.875 -1.5406e-18 0.0806623 -0.875 -3.26522e-18 0.0806667 0.3125 5.04871e-29 0.823557 -0.3125
0 0.823622 9.26509e-13 5.04871e-29 0.885465 0.875 0 0.142575 -0.875 -3.23117e-27
0.142584 -0.0625 4.92932e-18 0.885465 0.0625 -6.03858e-18 0.885465 0.625 0 0.637838
-0.625 2.01948e-28 0.637891 0.125 -5.04871e-29 0.885465 -0.125 0 0.885492 0.6875
0 0.57593 -0.6875 0 0.575977 0.5625 -2.52435e-29 0.699747 -0.5625 0
0.699805 0.875 -6.36353e-18 0.204487 -0.875 0 0.204501 0.8125 2.30477e-18 0.390224
-0.8125 0 0.390243 0.375 3.82565e-19 0.823557 -0.375 1.65848e-18 0.823633 0.1875
-3.72016e-18 0.885465 -0.1875 7.34014e-19 0.885492 0.75 1.26218e-29 0.514038 -0.75 8.07794e-28
0.514066 0.5 0 0.761656 -0.5 0 0.761719 0.875 6.31089e-30 0.266399
-0.875 3.23117e-27 0.266418 0.25 -5.04871e-29 0.885465 -0.25 -5.04871e-29 0.8855 0.8125
0 0.452136 -0.8125 0 0.452159 0.4375 -5.04871e-29 0.823565 -0.4375 0
0.823633 0.875 -5.88015e-18 0.328312 -0.875 -6.83729e-18 0.328335 -0.9375 0 0
0.9375 -6.31089e-30 0 -0.9375 2.78604e-18 0.01875 0.9375 6.36076e-18 0.01875 0.6875
9.03089e-19 0.637838 -0.6875 6.40813e-18 0.637891 0.625 -2.58188e-18 0.699747 -0.625 2.61625e-18
0.699805 0.3125 6.49955e-19 0.885465 -0.3125 -4.36459e-18 0.885535 0.9375 -6.31089e-30 0.0806623
-0.9375 0 0.0806687 0.75 3.51659e-18 0.575949 -0.75 8.07794e-28 0.57598 0.5625
-2.52435e-29 0.761656 -0.5625 -1.43321e-18 0.761719 1.24031e-12 6.80881e-18 0.947373 0.9375 -6.07622e-18
0.142575 -0.9375 6.30495e-18 0.142588 -0.0625 0 0.947373 0.0625 0 0.947373
0.125 4.7731e-18 0.947373 -0.125 6.54495e-19 0.947403 0.875 0 0.390224 -0.875
0 0.390253 0.9375 0 0.204487 -0.9375 6.46235e-27 0.204507 0.8125 4.92265e-18
0.514049 -0.8125 0 0.514075 0.375 5.04871e-29 0.885465 -0.375 0 0.885547
0.5 0 0.823565 -0.5 0 0.823633 0.1875 0 0.947373 -0.1875
[...]
POINT_DATA 8354
FIELD attributes 1
U 3 8354 float
30 0 0 30.006 -1.65182e-06 -7.74475e-05 30 0 0 30 0
0 30.0061 -1.68116e-06 -7.28118e-05 30.0059 -1.62233e-06 -8.18941e-05 30.0063 -1.73513e-06 -0.000199601
30.0064 -1.76499e-06 -0.000186856 30.0062 -1.70505e-06 -0.000211617 30 0 0 30
0 0 30.0062 -1.71042e-06 -6.80053e-05 30.0058 -1.59261e-06 -8.61145e-05 30.0064 -1.76754e-06
-0.000354882 30.0065 -1.79491e-06 -0.000173487 30.0061 -1.67472e-06 -0.000222881 30.0065 -1.79758e-06 -0.000332691
30.0063 -1.73725e-06 -0.000375881 30 0 0 30 0 0 30.0062
-1.73945e-06 -6.30486e-05 30.0057 -1.56299e-06 -9.00847e-05 30.0065 -1.82771e-06 -0.00030948 30.0061 -1.7067e-06
-0.000395606 30.0065 -1.82474e-06 -0.000159724 30.006 -1.64452e-06 -0.000233367 30.0064 -1.78635e-06 -0.000521486
30.0065 -1.8165e-06 -0.000489818 30.0063 -1.75599e-06 -0.000551515 30.0066 -1.8578e-06 -0.000285523 30.006
-1.67623e-06 -0.000413975 30.0066 -1.8467e-06 -0.000456736 30.0062 -1.72536e-06 -0.000579774 30 0
0 30 0 0 30.0063 -1.76833e-06 -5.80094e-05 30.0055 -1.53312e-06 -9.37916e-05
30.0066 -1.85441e-06 -0.000145736 30.0058 -1.61414e-06 -0.000243028 30.0065 -1.79176e-06 -0.000687101 30.0066
-1.82224e-06 -0.000645701 30.0063 -1.76108e-06 -0.000726358 30.0067 -1.8769e-06 -0.000422435 30.0061 -1.69486e-06
-0.000606095 30.0067 -1.88774e-06 -0.000261011 30.0059 -1.64562e-06 -0.000430912 30.0066 -1.85273e-06 -0.000602409
30.0062 -1.73015e-06 -0.000763303 30 0 0 30 0 0 30.0064
-1.79723e-06 -5.2902e-05 30.0054 -1.50305e-06 -9.72228e-05 30.0067 -1.88393e-06 -0.000131501 30.0057 -1.58355e-06
-0.000251847 30.0068 -1.90689e-06 -0.000387168 30.006 -1.6642e-06 -0.000630382 30.0067 -1.88323e-06 -0.000557465
30.0061 -1.69935e-06 -0.000797709 30.0065 -1.79327e-06 -0.000862993 30.0064 -1.76223e-06 -0.000911765 30.0066
-1.8241e-06 -0.000811551 30.0068 -1.91746e-06 -0.000235985 30.0058 -1.61486e-06 -0.000446359 30.0067 -1.85496e-06
-0.000757716 30.0062 -1.73094e-06 -0.000957632 30.0068 -1.9135e-06 -0.000511166 30.006 -1.66841e-06 -0.000829459
30.0068 -1.93669e-06 -0.000351074 30.0058 -1.63334e-06 -0.000652526 30 0 0 30
0 0 30.0064 -1.82611e-06 -4.76889e-05 30.0053 -1.47312e-06 -0.000100366 30.0067 -1.88579e-06
-0.000701817 30.0061 -1.69974e-06 -0.00100034 30.0067 -1.91347e-06 -0.000116923 30.0056 -1.55311e-06 -0.000259797
30.0065 -1.80022e-06 -0.00103946 30.0066 -1.83145e-06 -0.000977604 30.0064 -1.7688e-06 -0.00109807 30.0068
-1.94716e-06 -0.000210468 30.0056 -1.58418e-06 -0.000460264 30.0067 -1.8627e-06 -0.000912857 30.0063 -1.73711e-06
-0.00115319 30.0069 -1.94358e-06 -0.000463758 30.0058 -1.63725e-06 -0.000858407 30.0068 -1.91643e-06 -0.000644174
30.006 -1.66843e-06 -0.00103972 30.0069 -1.96645e-06 -0.000314402 30.0057 -1.60257e-06 -0.000672446 30.0068
-1.89392e-06 -0.000845598 30.0061 -1.70548e-06 -0.00120448 30 0 0 30 0
0 30.0052 -1.4432e-06 -0.000103203 30.0064 -1.85476e-06 -4.24038e-05 30.0068 -1.94272e-06 -0.000102164
30.0054 -1.52276e-06 -0.000266863 30.0066 -1.81279e-06 -0.00122812 30.0069 -1.94685e-06 -0.000585167 30.0058
-1.63694e-06 -0.00107563 30.0067 -1.84459e-06 -0.00115527 30.0065 -1.78082e-06 -0.00129713 30.0069 -1.97363e-06
-0.000415558 30.0057 -1.60618e-06 -0.000884464 30.0069 -1.9766e-06 -0.000184685 30.0055 -1.55364e-06 -0.00047258
30.0069 -1.92495e-06 -0.000776224 30.006 -1.67376e-06 -0.00125175 30.0068 -1.87639e-06 -0.00107897 30.0064
-1.74856e-06 -0.00136196 30.0069 -1.99607e-06 -0.000277273 30.0055 -1.57194e-06 -0.000690043 30.0069 -1.90817e-06
-0.000999672 30.0062 -1.71634e-06 -0.00142224 30.0069 -1.97722e-06 -0.000525136 30.0057 -1.60551e-06 -0.00110794
30.0069 -1.95577e-06 -0.00070518 30.0059 -1.64189e-06 -0.00129482 30 0 0 30
0 0 30.005 -1.41324e-06 -0.000105708 30.0065 -1.8832e-06 -3.70114e-05 30.0068 -1.97177e-06
-8.72159e-05 30.0053 -1.49224e-06 -0.000273018 30.007 -2.00351e-06 -0.000366809 30.0056 -1.57523e-06 -0.000907528
30.0068 -1.83102e-06 -0.00141476 30.007 -1.93974e-06 -0.000917861 30.0061 -1.68406e-06 -0.00147775 30.0069
-1.86333e-06 -0.00133044 30.0066 -1.79854e-06 -0.00149458 30.0069 -2.00567e-06 -0.000158634 30.0053 -1.52269e-06
-0.000483253 30.007 -1.89569e-06 -0.0012421 30.0065 -1.76578e-06 -0.00156954 30.007 -2.02521e-06 -0.000239978
30.0054 -1.54114e-06 -0.000705237 30.007 -1.98652e-06 -0.000632905 30.0057 -1.61007e-06 -0.00133353 30.007
-2.00739e-06 -0.000464519 30.0055 -1.57422e-06 -0.00113657 30.0071 -1.928e-06 -0.00115025 30.0064 -1.73305e-06
-0.0016392 30.0071 -1.97108e-06 -0.000834051 30.006 -1.65159e-06 -0.00152826 30 0 0
30 0 0 30.0049 -1.38273e-06 -0.000107884 30.0065 -1.91151e-06 -3.15947e-05 30.007
-2.033e-06 -0.00031799 30.0054 -1.54439e-06 -0.000927549 30.0068 -2.00071e-06 -7.27056e-05 30.0051 -1.46117e-06
-0.000278307 30.0071 -1.96009e-06 -0.00105546 30.0062 -1.70026e-06 -0.00170331 30.0069 -1.84914e-06 -0.00160405
30.0067 -1.81618e-06 -0.00169482 30.007 -1.88198e-06 -0.00150804 30.0069 -2.03466e-06 -0.000133108 30.0052
-1.49129e-06 -0.000492261 30.007 -2.01707e-06 -0.000559891 30.0056 -1.5784e-06 -0.00136776 30.0071 -2.00236e-06
-0.00074878 30.0058 -1.61918e-06 -0.00157357 30.0071 -1.91489e-06 -0.00140734 30.0066 -1.78291e-06 -0.00177994
30.007 -2.03724e-06 -0.000403688 30.0054 -1.5428e-06 -0.0011615 30.007 -2.05413e-06 -0.000203101 30.0052
-1.50983e-06 -0.000717916 30.0072 -1.99194e-06 -0.00095833 30.0061 -1.66728e-06 -0.00176163 30.0072 -1.94773e-06
-0.00130255 30.0065 -1.74967e-06 -0.0018589 30.007 -2.06214e-06 -0.000269672 30.0053 -1.51298e-06 -0.0009445
30 0 0 30 0 0 30.0047 -1.3522e-06 -0.000109754 30.0065
-1.93958e-06 -2.64066e-05 30.0073 -1.98035e-06 -0.00119432 30.0063 -1.71638e-06 -0.00193139 30.0072 -2.03345e-06
-0.000662616 30.0056 -1.58691e-06 -0.00161353 30.0068 -2.02938e-06 -5.8936e-05 30.005 -1.43027e-06 -0.000282889
30.0071 -2.04725e-06 -0.000486606 30.0054 -1.54643e-06 -0.00139747 30.0073 -2.02372e-06 -0.000859484 30.0059
-1.63435e-06 -0.00181395 30.0069 -1.86484e-06 -0.00179643 30.0068 -1.83112e-06 -0.00189879 30.0071 -1.89842e-06
-0.00168804 30.0069 -2.06345e-06 -0.000108517 30.005 -1.46029e-06 -0.000499662 30.0072 -1.93207e-06 -0.00157425
30.0067 -1.79711e-06 -0.00199466 30.007 -2.06684e-06 -0.000343138 30.0052 -1.51086e-06 -0.0011828 30.0073
-2.01273e-06 -0.00108336 30.0062 -1.68293e-06 -0.00199721 30.007 -2.08325e-06 -0.000166599 30.0051 -1.47871e-06
-0.000727964 30.0073 -1.96562e-06 -0.00145575 30.0065 -1.7631e-06 -0.00208345 30.0072 -2.06413e-06 -0.00057611
30.0055 -1.55454e-06 -0.00164804 30.0073 -2.05528e-06 -0.000759582 30.0058 -1.60156e-06 -0.00186014 30.007
-2.09144e-06 -0.000221478 30.0051 -1.48152e-06 -0.000958401 30.0071 -2.07721e-06 -0.000413566 30.0052 -1.51394e-06
-0.00142261 30.0074 -1.99893e-06 -0.00133329 30.0064 -1.72904e-06 -0.00216481 30.0074 -2.045e-06 -0.000970381
30.006 -1.64951e-06 -0.00205608 30 0 0 30 0 0 30.0046
-1.32226e-06 -0.000111246 30.0065 -1.96743e-06 -2.14501e-05 30.0068 -2.05818e-06 -4.55129e-05 30.0048 -1.39999e-06
-0.000286901 30.0071 -1.88272e-06 -0.0020035 30.0069 -2.09216e-06 -8.43768e-05 30.0049 -1.42979e-06 -0.000505503
30.0069 -1.84815e-06 -0.00211843 30.0072 -1.91714e-06 -0.00188168 30.0071 -2.09639e-06 -0.000282999 30.0051
-1.47908e-06 -0.00120064 30.0074 -2.032e-06 -0.00120767 30.0062 -1.69481e-06 -0.00223853 30.0073 -1.95161e-06
-0.00175368 30.0068 -1.81328e-06 -0.00222594 30.0074 -2.08644e-06 -0.000659269 30.0056 -1.56886e-06 -0.00190015
30.007 -2.11205e-06 -0.00013075 30.0049 -1.4482e-06 -0.000735171 30.0072 -2.09459e-06 -0.000489835 30.0053
-1.52167e-06 -0.00167699 30.0074 -2.07704e-06 -0.000856158 30.0058 -1.61623e-06 -0.00210788 30.0074 -1.98598e-06
-0.00162029 30.0066 -1.77842e-06 -0.00232536 30.0071 -2.10711e-06 -0.000341103 30.0051 -1.48176e-06 -0.00144321
30.007 -2.12064e-06 -0.00017398 30.0049 -1.45077e-06 -0.000969232 30.0075 -2.06494e-06 -0.00107972 30.006
-1.6606e-06 -0.00230427 30.0075 -2.02007e-06 -0.00148236 30.0064 -1.7435e-06 -0.00241631 30 0
0 30 0 0 30.0065 -1.99525e-06 -1.66942e-05 30.0044 -1.29204e-06 -0.000112096
30.0068 -2.08686e-06 -3.22036e-05 30.0047 -1.36972e-06 -0.000290169 30.0072 -1.90368e-06 -0.00221939 30.0071
-2.12584e-06 -0.000223752 30.0049 -1.4479e-06 -0.00121524 30.0074 -2.11738e-06 -0.000559211 30.0054 -1.53569e-06
-0.00193397 30.0075 -2.10867e-06 -0.000741433 30.0057 -1.58294e-06 -0.00215261 30.0069 -2.1207e-06 -6.02309e-05
30.0047 -1.39953e-06 -0.000509591 30.0071 -1.86825e-06 -0.00234759 30.0073 -1.93897e-06 -0.00208335 30.0076
-2.05389e-06 -0.00134081 30.0063 -1.7084e-06 -0.00249853 30.0072 -2.12497e-06 -0.000404323 30.0051 -1.48891e-06
-0.00170021 30.0075 -1.9743e-06 -0.00194027 30.0069 -1.83253e-06 -0.00246733 30.0076 -2.09763e-06 -0.000950336
30.0058 -1.62653e-06 -0.00236188 30.007 -2.14052e-06 -9.55528e-05 30.0048 -1.41771e-06 -0.000739127 30.0076
-2.00952e-06 -0.00179104 30.0067 -1.79683e-06 -0.0025779 30.0071 -2.1369e-06 -0.000269736 30.0049 -1.45014e-06
-0.00145923 30.0076 -2.08759e-06 -0.0011966 30.0061 -1.6733e-06 -0.00257167 30.007 -2.14944e-06 -0.000127729
30.0048 -1.4198e-06 -0.000976884 30.0077 -2.04443e-06 -0.00163663 30.0066 -1.76108e-06 -0.00267885 30.0075
-2.14007e-06 -0.000626983 30.0055 -1.54918e-06 -0.00219039 30.0074 -2.14825e-06 -0.000460055 30.0052 -1.5025e-06
-0.00196165 30.0076 -2.1299e-06 -0.00082036 30.0057 -1.5923e-06 -0.00241134 30 0 0
30 0 0 30.0043 -1.26127e-06 -0.000112154 30.0065 -2.02338e-06 -1.20995e-05 30.0068
-2.11512e-06 -1.88356e-05 30.0045 -1.33956e-06 -0.000292602 30.007 -2.15494e-06 -0.000165951 30.0048 -1.41669e-06
-0.0012269 30.0072 -2.15527e-06 -0.000320086 30.005 -1.45678e-06 -0.00171743 30.0077 -2.07904e-06 -0.00147808
30.0064 -1.72513e-06 -0.00276993 30.0074 -1.92584e-06 -0.00245147 30.0069 -2.14884e-06 -3.60378e-05 30.0046
-1.36951e-06 -0.000511449 30.0077 -2.12102e-06 -0.00105075 30.0059 -1.63833e-06 -0.00263553 30.0072 -1.88935e-06
-0.0025938 30.0075 -1.9622e-06 -0.00230019 30.0076 -1.99859e-06 -0.00214088 30.007 -1.85256e-06 -0.00272652
30.007 -2.1687e-06 -6.09565e-05 30.0046 -1.38743e-06 -0.000738958 30.0078 -2.03486e-06 -0.00197455 30.0069
-1.81578e-06 -0.0028488 30.0071 -2.1664e-06 -0.000199993 30.0047 -1.41873e-06 -0.00147067 30.0078 -2.11355e-06
-0.0013165 30.0062 -1.68917e-06 -0.00285075 30.0075 -2.1714e-06 -0.000513561 30.0053 -1.5155e-06 -0.00222145
30.0076 -2.16192e-06 -0.000690696 30.0055 -1.55761e-06 -0.0024527 30.007 -2.17795e-06 -8.25447e-05 30.0046
-1.38897e-06 -0.000981477 30.0074 -2.17903e-06 -0.000362401 30.0051 -1.46997e-06 -0.00198324 30.0077 -2.15402e-06
-0.000904222 30.0057 -1.60333e-06 -0.00269006 30.0079 -2.07082e-06 -0.00180232 30.0067 -1.77893e-06 -0.00296014
30 0 0 30 0 0 30.0041 -1.23028e-06 -0.000112434 30.0064
-2.0516e-06 -7.52495e-06 30.0072 -2.18528e-06 -0.000237696 30.0048 -1.42464e-06 -0.00172826 30.007 -2.18374e-06
-0.000109559 30.0046 -1.38568e-06 -0.00123669 30.0079 -2.14779e-06 -0.00115305 30.006 -1.65336e-06 -0.00292113
30.0068 -2.14311e-06 -5.7751e-06 30.0044 -1.31007e-06 -0.000295743 30.0079 -2.10649e-06 -0.00162536 30.0065
-1.7419e-06 -0.00306028 30.0075 -1.9523e-06 -0.00269932 30.0069 -2.1768e-06 -1.26627e-05 30.0044 -1.33999e-06
-0.000510632 30.0074 -1.91439e-06 -0.0028568 30.0077 -1.99008e-06 -0.00253168 30.0076 -2.19384e-06 -0.00056221
30.0053 -1.52313e-06 -0.00248605 30.0078 -2.02788e-06 -0.00235491 30.0072 -1.87616e-06 -0.00300336 30.0075
-2.20261e-06 -0.000401881 30.0051 -1.48247e-06 -0.00224619 30.0077 -2.18675e-06 -0.000758066 30.0055 -1.56792e-06
-0.00273525 30.0069 -2.19676e-06 -2.74555e-05 30.0045 -1.35749e-06 -0.000732651 30.0071 -2.19555e-06 -0.000132048
30.0046 -1.38754e-06 -0.0014776 30.008 -2.14202e-06 -0.00144495 30.0063 -1.70488e-06 -0.00314879 30.008
-2.06553e-06 -0.00217015 30.007 -1.8379e-06 -0.00313811 30.0074 -2.2095e-06 -0.000266893 30.0049 -1.43726e-06
-0.00199887 30.0079 -2.18157e-06 -0.000988832 30.0058 -1.61769e-06 -0.00298106 30.007 -2.20632e-06 -3.87481e-05
30.0045 -1.35838e-06 -0.000984129 30.0081 -2.10287e-06 -0.00197867 30.0068 -1.79956e-06 -0.0032605 30.0072
-2.21489e-06 -0.00015754 30.0046 -1.39275e-06 -0.00173174 30.0081 -2.17725e-06 -0.00126239 30.0061 -1.66801e-06
-0.0032255 30.007 -2.21239e-06 -5.49274e-05 30.0044 -1.35501e-06 -0.00124805 30 0 0
30 0 0 30.004 -1.20144e-06 -0.000116654 30.0064 -2.07936e-06 -3.07232e-06 30.0076
-2.22562e-06 -0.000435742 30.0051 -1.48926e-06 -0.00251162 30.0078 -2.21937e-06 -0.000613277 30.0053 -1.53266e-06
-0.00277106 30.0082 -2.13989e-06 -0.0017818 30.0066 -1.76106e-06 -0.00337022 30.0068 -2.17106e-06 6.74282e-06
30.0042 -1.28186e-06 -0.000303756 30.0075 -2.23353e-06 -0.00029266 30.0049 -1.44947e-06 -0.00226535 30.0079
-2.21505e-06 -0.000825053 30.0056 -1.58169e-06 -0.00303062 30.0078 -1.99178e-06 -0.00296937 30.0069 -2.20487e-06
9.58543e-06 30.0043 -1.31126e-06 -0.000507463 30.0076 -1.95229e-06 -0.00314356 30.008 -2.03111e-06 -0.00278367
30.0081 -2.07043e-06 -0.00258763 30.0074 -1.91246e-06 -0.00330539 30.0071 -2.22456e-06 -6.62695e-05 30.0044
-1.35676e-06 -0.00148009 30.0069 -2.2249e-06 4.64693e-06 30.0043 -1.32835e-06 -0.000717714 30.0073 -2.23956e-06
-0.000174006 30.0047 -1.40489e-06 -0.00200878 30.0082 -2.17675e-06 -0.00158101 30.0064 -1.72257e-06 -0.00346681
30.0081 -2.21199e-06 -0.00107899 30.0059 -1.63119e-06 -0.00329039 30.0082 -2.10957e-06 -0.00238251 30.0072
-1.87258e-06 -0.00345387 30.007 -2.2347e-06 3.41001e-06 30.0043 -1.32815e-06 -0.000986925 30.0084 -2.14835e-06
-0.00216976 30.007 -1.83263e-06 -0.00358838 30.0077 -2.25183e-06 -0.000470826 30.0051 -1.49803e-06 -0.00279749
30.0076 -2.2571e-06 -0.000312109 30.0049 -1.45562e-06 -0.00252983 30.0072 -2.24438e-06 -7.99905e-05 30.0045
-1.3613e-06 -0.00172448 30.0079 -2.24842e-06 -0.000662853 30.0054 -1.54576e-06 -0.00306996 30.0083 -2.21325e-06
-0.00137777 30.0062 -1.68425e-06 -0.00355008 30.007 -2.24105e-06 -2.33586e-06 30.0043 -1.32468e-06 -0.00126591
30.0075 -2.26405e-06 -0.000186515 30.0048 -1.41681e-06 -0.00228049 30.0081 -2.24642e-06 -0.000896094 30.0057
-1.5941e-06 -0.00334368 30.0085 -2.18678e-06 -0.00195091 30.0068 -1.79246e-06 -0.00370861 30 0
0 30 0 0 30.0038 -1.18096e-06 -0.000132764 30.0064 -2.10664e-06 1.2035e-06
30.0067 -2.19879e-06 1.8677e-05 30.0041 -1.2597e-06 -0.000316004 30.0081 -2.04361e-06 -0.00325547 30.0068
-2.23282e-06 3.07115e-05 30.0041 -1.28249e-06 -0.0005048 30.0083 -2.08414e-06 -0.00305044 30.0079 -2.00293e-06
-0.00344742 30.0073 -2.26949e-06 -8.4207e-05 30.0045 -1.37286e-06 -0.00201301 30.007 -2.25355e-06 -3.01873e-06
30.0043 -1.32627e-06 -0.00147799 30.0083 -2.24923e-06 -0.00117358 30.0059 -1.64588e-06 -0.00362006 30.0084
-2.12459e-06 -0.00283364 30.0077 -1.96195e-06 -0.00362532 30.0085 -2.225e-06 -0.00172759 30.0066 -1.75228e-06
-0.00381408 30.0069 -2.25288e-06 3.5252e-05 30.0042 -1.30515e-06 -0.000700916 30.0077 -2.28396e-06 -0.000331655
30.0049 -1.46341e-06 -0.00281454 30.0079 -2.28162e-06 -0.000503352 30.0052 -1.5105e-06 -0.00309931 30.0086
-2.16489e-06 -0.00260652 30.0075 -1.92095e-06 -0.00378812 30.0076 -2.28818e-06 -0.000192048 30.0047 -1.42224e-06
-0.00254127 30.0081 -2.28071e-06 -0.000715026 30.0054 -1.55721e-06 -0.00338563 30.0069 -2.2629e-06 4.36819e-05
30.0041 -1.29981e-06 -0.000987195 30.0087 -2.20483e-06 -0.00237069 30.0073 -1.87992e-06 -0.00393518 30.0071
-2.27382e-06 -5.49566e-06 30.0043 -1.33008e-06 -0.00170076 30.0086 -2.26285e-06 -0.00150153 30.0063 -1.71225e-06
-0.00390458 30.0074 -2.29441e-06 -8.40092e-05 30.0046 -1.38457e-06 -0.00229548 30.0083 -2.28488e-06 -0.000969992
30.0057 -1.60725e-06 -0.0036769 30.0069 -2.26951e-06 4.78818e-05 30.0041 -1.30036e-06 -0.00128331 30.0088
-2.24437e-06 -0.0021279 30.007 -1.8387e-06 -0.00406616 30 0 0 30.0063 -2.13365e-06
5.38401e-06 30.0067 -2.22627e-06 3.00735e-05 30.0079 -2.31447e-06 -0.000347632 30.005 -1.47506e-06 -0.00311903
30.0073 -2.29935e-06 1.9363e-06 30.0043 -1.34112e-06 -0.00201091 30.0084 -2.09444e-06 -0.00355474 30.0086
-2.30013e-06 -0.00127441 30.0061 -1.67227e-06 -0.00398014 30.0068 -2.26053e-06 5.06664e-05 30.0077 -2.31566e-06
-0.000196617 30.0047 -1.42903e-06 -0.00282168 30.0081 -2.31482e-06 -0.00053707 30.0052 -1.52095e-06 -0.00341667
30.0085 -2.13614e-06 -0.00332935 30.0082 -2.05258e-06 -0.00376523 30.007 -2.28231e-06 5.73173e-05 30.0041
-1.29799e-06 -0.00147198 30.0089 -2.2837e-06 -0.00188003 30.0068 -1.79747e-06 -0.0041806 30.0087 -2.17775e-06
-0.0030905 30.0079 -2.01046e-06 -0.00395971 30.0068 -2.28053e-06 6.42837e-05 30.0075 -2.31906e-06 -7.62483e-05
30.0045 -1.38937e-06 -0.00254694 30.0083 -2.32036e-06 -0.000768511 30.0055 -1.56889e-06 -0.00372076 30.0089
-2.21919e-06 -0.00283983 30.0077 -1.96833e-06 -0.00413708 30.0069 -2.29077e-06 8.18469e-05 30.0071 -2.30299e-06
6.55122e-05 30.0041 -1.30511e-06 -0.00167176 30.009 -2.26026e-06 -0.00257922 30.0075 -1.9262e-06 -0.00429663
30.0089 -2.32264e-06 -0.00162902 30.0065 -1.75643e-06 -0.00427833 30.0074 -2.32466e-06 1.42396e-05 30.0044
-1.35268e-06 -0.00231623 30.0086 -2.33706e-06 -0.001048 30.0058 -1.63201e-06 -0.00404088 30.0069 -2.29766e-06
9.54279e-05 30.0078 -2.34688e-06 -0.000196674 30.0048 -1.43979e-06 -0.00312963 30.0081 -2.34857e-06 -0.000363465
30.005 -1.48473e-06 -0.00343744 30.0091 -2.30094e-06 -0.00231062 30.0072 -1.88393e-06 -0.00443799 30.0076
-2.34714e-06 -6.65257e-05 30.0045 -1.39513e-06 -0.00281664 30.0083 -2.35562e-06 -0.000570605 30.0053 -1.5312e-06
-0.00375182 30.0072 -2.3289e-06 8.395e-05 30.0042 -1.31208e-06 -0.00200261 30 0 0
30 0 0 30.0063 -2.16059e-06 9.30005e-06 30.0036 -1.1424e-06 -0.000179449 30.009
-2.36102e-06 -0.00137684 30.0063 -1.71562e-06 -0.0043595 30.0066 -2.25364e-06 4.09259e-05 30.0069 -2.31077e-06
0.000114405 30.0086 -2.14086e-06 -0.00387339 30.0075 -2.34981e-06 3.46248e-05 30.0044 -1.3569e-06 -0.00254914
30.0067 -2.28808e-06 6.95925e-05 30.0088 -2.18411e-06 -0.00362579 30.0084 -2.09743e-06 -0.00410405 30.0092
-2.34138e-06 -0.00203619 30.0086 -2.37378e-06 -0.000824057 30.007 -1.84168e-06 -0.00456066 30.0056 -1.59196e-06
-0.00408685 30.0038 -1.2244e-06 -0.000532384 30.009 -2.22721e-06 -0.00336286 30.0081 -2.05374e-06 -0.00431649
30.0068 -2.30797e-06 9.16256e-05 30.0091 -2.27008e-06 -0.00308642 30.0079 -2.01002e-06 -0.00450961 30.0073
-2.3546e-06 0.000107676 30.0042 -1.32751e-06 -0.00233735 30.007 -2.33185e-06 0.000132653 30.009 -2.39902e-06
-0.00112549 30.006 -1.67468e-06 -0.0044244 30.0068 -2.31845e-06 0.000117742 30.008 -2.38188e-06 -0.00019534
30.0048 -1.44877e-06 -0.00344938 30.0092 -2.38139e-06 -0.00175817 30.0067 -1.79967e-06 -0.00466455 30.0038
-1.23955e-06 -0.0010008 30.0078 -2.37908e-06 -5.14191e-05 30.0046 -1.4051e-06 -0.00313178 30.0093 -2.31254e-06
-0.0027986 30.0076 -1.9663e-06 -0.00468257 30.0083 -2.39053e-06 -0.000377695 30.005 -1.49378e-06 -0.00377027
30.0076 -2.37849e-06 5.78595e-05 30.0043 -1.36161e-06 -0.00279663 30.0086 -2.41025e-06 -0.00060423 30.0054
-1.55264e-06 -0.00411803 30.0068 -2.32561e-06 0.000140098 30.0094 -2.3546e-06 -0.00250165 30.0073 -1.92241e-06
-0.00483492 30.0071 -2.35814e-06 0.000161421 30.0093 -2.42084e-06 -0.00147879 30.0064 -1.75794e-06 -0.00474993
30.0074 -2.38026e-06 0.000139951 30.0042 -1.32682e-06 -0.00254962 30.009 -2.43681e-06 -0.000876986 30.0058
-1.63397e-06 -0.00447342 30 0 0 30.0062 -2.18729e-06 1.28297e-05 30.0066 -2.28081e-06
5.11721e-05 30.0069 -2.33903e-06 0.000167998 30.0038 -1.23887e-06 -0.00146369 30.0095 -2.39635e-06 -0.00219803
30.0071 -1.87853e-06 -0.0049662 30.0088 -2.18686e-06 -0.00421984 30.0066 -2.31539e-06 8.75325e-05 30.0091
-2.23177e-06 -0.00394737 30.0086 -2.14174e-06 -0.00447309 30.0093 -2.27648e-06 -0.00365749 30.0083 -2.09639e-06
-0.00470568 30.008 -2.41495e-06 -3.37686e-05 30.0046 -1.41347e-06 -0.00345611 30.0082 -2.42497e-06 -0.000191083
30.0048 -1.45681e-06 -0.00377647 30.0067 -2.3352e-06 0.000117156 30.0077 -2.41112e-06 8.72761e-05 30.0044
-1.37071e-06 -0.00312653 30.0086 -2.44635e-06 -0.000390147 30.0051 -1.5135e-06 -0.00413429 30.0072 -2.38423e-06
0.000195831 30.0094 -2.32094e-06 -0.00335226 30.0081 -2.05104e-06 -0.00491645 30.0093 -2.4599e-06 -0.00120038
30.0062 -1.71622e-06 -0.00481726 30.007 -2.36051e-06 0.00019563 30.0095 -2.43763e-06 -0.00189031 30.0068