# vtk DataFile Version 2.0
track0
ASCII
DATASET POLYDATA
POINTS 15780 float
-1.001 -0.05 0.0011
-1.0008 -0.05 0.0011
-1.0006 -0.05 0.0011
-1.0004 -0.05 0.0011
-1.0002 -0.05 0.0011
-1 -0.05 0.0011
-0.9875 -0.05 0.0011
-0.975 -0.05 0.0011
-0.9625 -0.05 0.0011
-0.95 -0.05 0.0011
-0.9375 -0.05 0.00109999
-0.925 -0.05 0.00109999
-0.9125 -0.05 0.00109999
-0.9 -0.05 0.00109999
-0.8875 -0.05 0.00109999
-0.875 -0.05 0.00109999
-0.8625 -0.05 0.00109999
-0.85 -0.05 0.00109999
-0.8375 -0.05 0.00109998
-0.825 -0.0500001 0.00109998
-0.8125 -0.0500001 0.00109998
-0.8 -0.0500001 0.00109998
-0.7875 -0.0500001 0.00109998
-0.775 -0.0500001 0.00109998
-0.7625 -0.0500001 0.00109998
-0.75 -0.0500001 0.00109998
-0.7375 -0.0500001 0.00109997
-0.725 -0.0500001 0.00109997
-0.7125 -0.0500001 0.00109997
-0.7 -0.0500001 0.00109997
-0.6875 -0.0500001 0.00109997
-0.675 -0.0500001 0.00109997
-0.6625 -0.0500001 0.00109997
-0.65 -0.0500001 0.00109996
-0.6375 -0.0500001 0.00109996
-0.625 -0.0500001 0.00109996
-0.6125 -0.0500001 0.00109996
-0.6 -0.0500001 0.00109996
-0.5875 -0.0500001 0.00109996
-0.575 -0.0500001 0.00109996
-0.5625 -0.0500001 0.00109996
-0.55 -0.0500001 0.00109995
-0.5375 -0.0500001 0.00109995
-0.525 -0.0500001 0.00109995
-0.5125 -0.0500001 0.00109995
-0.5 -0.0500001 0.00109995
-0.4875 -0.0500001 0.00109995
-0.475 -0.0500001 0.00109995
-0.4625 -0.0500001 0.00109994
-0.45 -0.0500002 0.00109994
-0.4375 -0.0500002 0.00109994
-0.425 -0.0500002 0.00109994
-0.4125 -0.0500002 0.00109994
-0.4 -0.0500002 0.00109994
-0.3875 -0.0500002 0.00109994
-0.375 -0.0500002 0.00109994
-0.3625 -0.0500002 0.00109993
-0.35 -0.0500002 0.00109993
-0.3375 -0.0500002 0.00109993
-0.325 -0.0500002 0.00109993
-0.3125 -0.0500002 0.00109993
-0.3 -0.0500002 0.00109993
-0.2875 -0.0500002 0.00109993
-0.275 -0.0500002 0.00109993
-0.2625 -0.0500002 0.00109992
-0.25 -0.0500002 0.00109992
-0.2375 -0.0500002 0.00109992
-0.225 -0.0500002 0.00109992
-0.2125 -0.0500002 0.00109992
-0.2 -0.0500002 0.00109992
-0.1875 -0.0500002 0.00109992
-0.175 -0.0500002 0.00109992
-0.1625 -0.0500002 0.00109991
-0.15 -0.0500002 0.00109991
-0.1375 -0.0500002 0.00109991
-0.125 -0.0500002 0.00109991
-0.1125 -0.0500002 0.00109991
-0.1 -0.0500002 0.00109991
-0.0875 -0.0500002 0.00109991
-0.075 -0.0500002 0.00109991
-0.0625 -0.0500002 0.00109991
-0.05 -0.0500003 0.00109991
-0.0375 -0.0500003 0.0010999
-0.025 -0.0500003 0.0010999
-0.0125 -0.0500003 0.0010999
2.10607e-13 -0.0500003 0.0010999
0.0125 -0.0500003 0.0010999
0.025 -0.0500003 0.0010999
0.0375 -0.0500003 0.0010999
0.05 -0.0500003 0.0010999
0.0625 -0.0500003 0.0010999
0.075 -0.0500003 0.0010999
0.0875 -0.0500003 0.0010999
0.1 -0.0500003 0.00109989
0.1125 -0.0500003 0.00109989
0.125 -0.0500003 0.00109989
0.1375 -0.0500003 0.00109989
0.15 -0.0500003 0.00109989
0.1625 -0.0500003 0.00109989
0.175 -0.0500003 0.00109989
0.1875 -0.0500003 0.00109989
0.2 -0.0500003 0.00109989
0.2125 -0.0500003 0.00109989
0.225 -0.0500003 0.00109989
0.2375 -0.0500003 0.00109989
0.25 -0.0500003 0.00109989
0.2625 -0.0500003 0.00109988
0.275 -0.0500003 0.00109988
0.2875 -0.0500003 0.00109988
0.3 -0.0500003 0.00109988
0.3125 -0.0500003 0.00109988
0.325 -0.0500003 0.00109988
0.3375 -0.0500003 0.00109988
0.35 -0.0500003 0.00109988
0.3625 -0.0500003 0.00109988
0.375 -0.0500003 0.00109988
0.3875 -0.0500003 0.00109988
0.4 -0.0500004 0.00109988
0.4125 -0.0500004 0.00109988
0.425 -0.0500004 0.00109988
0.4375 -0.0500004 0.00109988
0.45 -0.0500004 0.00109988
0.4625 -0.0500004 0.00109988
0.475 -0.0500004 0.00109988
0.4875 -0.0500004 0.00109988
0.5 -0.0500004 0.00109988
0.5125 -0.0500004 0.00109988
0.525 -0.0500004 0.00109988
0.5375 -0.0500004 0.00109988
0.55 -0.0500004 0.00109988
0.5625 -0.0500004 0.00109988
0.575 -0.0500004 0.00109987
0.5875 -0.0500004 0.00109987
0.6 -0.0500004 0.00109987
0.6125 -0.0500004 0.00109987
0.625 -0.0500004 0.00109987
0.6375 -0.0500004 0.00109987
0.65 -0.0500004 0.00109987
0.6625 -0.0500004 0.00109987
0.675 -0.0500004 0.00109987
0.6875 -0.0500004 0.00109987
0.7 -0.0500004 0.00109987
0.7125 -0.0500004 0.00109987
0.725 -0.0500004 0.00109987
0.7375 -0.0500004 0.00109987
0.75 -0.0500004 0.00109987
0.7625 -0.0500004 0.00109987
0.775 -0.0500004 0.00109987
0.7875 -0.0500004 0.00109987
0.8 -0.0500004 0.00109987
0.8125 -0.0500004 0.00109987
0.825 -0.0500004 0.00109987
0.8375 -0.0500004 0.00109987
0.85 -0.0500004 0.00109987
0.8625 -0.0500004 0.00109987
0.875 -0.0500004 0.00109987
0.8875 -0.0500004 0.00109987
0.9 -0.0500004 0.00109987
0.9125 -0.0500005 0.00109988
0.925 -0.0500005 0.00109988
0.9375 -0.0500005 0.00109988
0.95 -0.0500005 0.00109988
0.9625 -0.0500005 0.00109988
0.975 -0.0500005 0.00109988
0.9875 -0.0500005 0.00109988
1 -0.0500005 0.00109988
1.0125 -0.0500005 0.00109988
1.025 -0.0500005 0.00109988
1.0375 -0.0500005 0.00109988
1.05 -0.0500005 0.00109988
1.0625 -0.0500005 0.00109988
1.075 -0.0500005 0.00109988
1.0875 -0.0500005 0.00109988
1.1 -0.0500005 0.00109988
1.1125 -0.0500005 0.00109988
1.125 -0.0500005 0.00109988
1.1375 -0.0500005 0.00109988
1.15 -0.0500005 0.00109988
1.1625 -0.0500005 0.00109988
1.175 -0.0500005 0.00109988
1.1875 -0.0500005 0.00109988
1.2 -0.0500005 0.00109988
1.2125 -0.0500005 0.00109988
1.225 -0.0500005 0.00109988
1.2375 -0.0500005 0.00109989
1.25 -0.0500005 0.00109989
1.2625 -0.0500005 0.00109989
1.275 -0.0500005 0.00109989
1.2875 -0.0500005 0.00109989
1.3 -0.0500005 0.00109989
1.3125 -0.0500005 0.00109989
1.325 -0.0500005 0.00109989
1.3375 -0.0500005 0.00109989
1.35 -0.0500005 0.00109989
1.3625 -0.0500005 0.00109989
1.375 -0.0500005 0.00109989
1.3875 -0.0500005 0.00109989
1.4 -0.0500005 0.00109989
1.4125 -0.0500005 0.00109989
1.425 -0.0500005 0.00109989
1.4375 -0.0500005 0.0010999
1.45 -0.0500005 0.0010999
1.4625 -0.0500005 0.0010999
1.475 -0.0500005 0.0010999
1.4875 -0.0500005 0.0010999
1.5 -0.0500006 0.0010999
1.5125 -0.0500006 0.0010999
1.525 -0.0500006 0.0010999
1.5375 -0.0500006 0.0010999
1.55 -0.0500006 0.0010999
1.5625 -0.0500006 0.0010999
1.575 -0.0500006 0.0010999
1.5875 -0.0500006 0.0010999
1.6 -0.0500006 0.0010999
1.6125 -0.0500006 0.00109991
1.625 -0.0500006 0.00109991
1.6375 -0.0500006 0.00109991
1.65 -0.0500006 0.00109991
1.6625 -0.0500006 0.00109991
1.675 -0.0500006 0.00109991
1.6875 -0.0500006 0.00109991
1.7 -0.0500006 0.00109991
1.7125 -0.0500006 0.00109991
1.725 -0.0500006 0.00109991
1.7375 -0.0500006 0.00109991
1.75 -0.0500006 0.00109991
1.7625 -0.0500006 0.00109992
1.775 -0.0500006 0.00109992
1.7875 -0.0500006 0.00109992
1.8 -0.0500006 0.00109992
1.8125 -0.0500006 0.00109992
1.825 -0.0500006 0.00109992
1.8375 -0.0500006 0.00109992
1.85 -0.0500006 0.00109992
1.8625 -0.0500006 0.00109992
1.875 -0.0500006 0.00109992
1.8875 -0.0500006 0.00109992
1.9 -0.0500006 0.00109992
1.9125 -0.0500006 0.00109993
1.925 -0.0500006 0.00109993
1.9375 -0.0500006 0.00109993
1.95 -0.0500006 0.00109993
1.9625 -0.0500006 0.00109993
1.975 -0.0500006 0.00109993
1.9875 -0.0500006 0.00109993
2 -0.0500006 0.00109993
2.0125 -0.0500006 0.00109993
2.025 -0.0500006 0.00109993
2.0375 -0.0500006 0.00109993
2.05 -0.0500006 0.00109993
2.0625 -0.0500006 0.00109994
2.075 -0.0500006 0.00109994
2.0875 -0.0500006 0.00109994
2.1 -0.0500006 0.00109994
2.1125 -0.0500006 0.00109994
2.125 -0.0500006 0.00109994
2.1375 -0.0500006 0.00109994
2.15 -0.0500006 0.00109994
2.1625 -0.0500006 0.00109994
2.175 -0.0500007 0.00109994
2.1875 -0.0500007 0.00109994
2.2 -0.0500007 0.00109994
2.2125 -0.0500007 0.00109994
2.225 -0.0500007 0.00109995
2.2375 -0.0500007 0.00109995
2.25 -0.0500007 0.00109995
2.2625 -0.0500007 0.00109995
2.275 -0.0500007 0.00109995
2.2875 -0.0500007 0.00109995
2.3 -0.0500007 0.00109995
2.3125 -0.0500007 0.00109995
2.325 -0.0500007 0.00109995
2.3375 -0.0500007 0.00109995
2.35 -0.0500007 0.00109995
2.3625 -0.0500007 0.00109995
2.375 -0.0500007 0.00109995
2.3875 -0.0500007 0.00109996
2.4 -0.0500007 0.00109996
2.4125 -0.0500007 0.00109996
2.425 -0.0500007 0.00109996
2.4375 -0.0500007 0.00109996
2.45 -0.0500007 0.00109996
2.4625 -0.0500007 0.00109996
2.475 -0.0500007 0.00109996
2.4875 -0.0500007 0.00109996
2.5 -0.0500007 0.00109996
2.5125 -0.0500007 0.00109996
2.525 -0.0500007 0.00109996
2.5375 -0.0500007 0.00109996
2.55 -0.0500007 0.00109996
2.5625 -0.0500007 0.00109997
2.575 -0.0500007 0.00109997
2.5875 -0.0500007 0.00109997
2.6 -0.0500007 0.00109997
2.6125 -0.0500007 0.00109997
2.625 -0.0500007 0.00109997
2.6375 -0.0500007 0.00109997
2.65 -0.0500007 0.00109997
2.6625 -0.0500007 0.00109997
2.675 -0.0500007 0.00109997
2.6875 -0.0500007 0.00109997
2.7 -0.0500007 0.00109997
2.7125 -0.0500007 0.00109997
2.725 -0.0500007 0.00109997
2.7375 -0.0500007 0.00109997
2.75 -0.0500007 0.00109997
2.7625 -0.0500007 0.00109998
2.775 -0.0500007 0.00109998
2.7875 -0.0500007 0.00109998
2.8 -0.0500007 0.00109998
2.8125 -0.0500007 0.00109998
2.825 -0.0500007 0.00109998
2.8375 -0.0500007 0.00109998
2.85 -0.0500007 0.00109998
2.8625 -0.0500008 0.00109998
2.875 -0.0500008 0.00109998
2.8875 -0.0500008 0.00109998
2.9 -0.0500008 0.00109998
2.9125 -0.0500008 0.00109998
2.925 -0.0500008 0.00109998
2.9375 -0.0500008 0.00109998
2.95 -0.0500008 0.00109998
2.9625 -0.0500008 0.00109998
2.975 -0.0500008 0.00109998
2.9875 -0.0500008 0.00109998
3 -0.0500008 0.00109998
3.0125 -0.0500008 0.00109999
3.025 -0.0500008 0.00109999
3.0375 -0.0500008 0.00109999
3.05 -0.0500008 0.00109999
3.0625 -0.0500008 0.00109999
3.075 -0.0500008 0.00109999
3.0875 -0.0500008 0.00109999
3.1 -0.0500008 0.00109999
3.1125 -0.0500008 0.00109999
3.125 -0.0500008 0.00109999
3.1375 -0.0500008 0.00109999
3.15 -0.0500008 0.00109999
3.1625 -0.0500008 0.00109999
3.175 -0.0500008 0.00109999
3.1875 -0.0500008 0.00109999
3.2 -0.0500008 0.00109999
3.2125 -0.0500008 0.00109999
3.225 -0.0500008 0.00109999
3.2375 -0.0500008 0.00109999
3.25 -0.0500008 0.00109999
3.2625 -0.0500008 0.00109999
3.275 -0.0500008 0.00109999
3.2875 -0.0500008 0.00109999
3.3 -0.0500008 0.00109999
3.3125 -0.0500008 0.00109999
3.325 -0.0500008 0.00109999
3.3375 -0.0500008 0.00109999
3.35 -0.0500008 0.0011
3.3625 -0.0500008 0.0011
[...]
POINT_DATA 15780
 FIELD attributes 1
U 3 15780 float
30.0002 	-7.0179e-06 	-6.30587e-06 30.0002 	-6.84341e-06 	-6.51453e-06 30.0002 	-6.66893e-06 	-6.7232e-06 30.0002 	-6.49444e-06 	-6.93187e-06 30.0002 	-6.31995e-06 	-7.14053e-06 30.0002 	-6.14546e-06 	-7.3492e-06 30.0004 	-1.23852e-05 	-1.26101e-06 30.0004 	-1.23852e-05 	-1.26101e-06 30.0004 	-1.23852e-05 	-1.261e-06 30.0004 	-1.23851e-05 	-1.261e-06 30.0002 	-7.05353e-08 	-6.84366e-06 30.0005 	-1.07091e-05 	-1.68706e-06 30.0005 	-1.07091e-05 	-1.68706e-06 30.0005 	-1.07091e-05 	-1.68706e-06 30.0005 	-1.07091e-05 	-1.68706e-06 30.0002 	-7.22137e-08 	-6.59607e-06 30.0005 	-9.9585e-06 	-2.08024e-06 30.0005 	-9.95849e-06 	-2.08024e-06 30.0005 	-9.95848e-06 	-2.08024e-06 30.0005 	-9.95848e-06 	-2.08023e-06 30.0003 	-4.59309e-06 	-6.24725e-06 30.0005 	-9.69174e-06 	-2.34897e-06 30.0005 	-9.69173e-06 	-2.34896e-06 30.0005 	-9.69172e-06 	-2.34896e-06 30.0005 	-9.69171e-06 	-2.34896e-06 30.0003 	-7.58064e-08 	-6.57615e-06 30.0005 	-9.52355e-06 	-2.49784e-06 30.0005 	-9.52354e-06 	-2.49784e-06 30.0005 	-9.52353e-06 	-2.49783e-06 30.0005 	-9.52352e-06 	-2.49783e-06 30.0003 	-7.75628e-08 	-6.52626e-06 30.0005 	-9.38719e-06 	-2.55608e-06 30.0005 	-9.38718e-06 	-2.55607e-06 30.0005 	-9.38717e-06 	-2.55607e-06 30.0005 	-9.38716e-06 	-2.55607e-06 30.0003 	-4.26691e-06 	-6.08528e-06 30.0005 	-9.27978e-06 	-2.5583e-06 30.0005 	-9.27977e-06 	-2.5583e-06 30.0005 	-9.27976e-06 	-2.5583e-06 30.0005 	-9.27975e-06 	-2.55829e-06 30.0003 	-4.1993e-06 	-5.97789e-06 30.0006 	-9.18758e-06 	-2.53044e-06 30.0006 	-9.18757e-06 	-2.53043e-06 30.0006 	-9.18756e-06 	-2.53043e-06 30.0006 	-9.18755e-06 	-2.53043e-06 30.0003 	-8.28679e-08 	-6.20127e-06 30.0006 	-9.09752e-06 	-2.48119e-06 30.0006 	-9.09751e-06 	-2.48119e-06 30.0006 	-9.0975e-06 	-2.48118e-06 30.0006 	-9.09749e-06 	-2.48118e-06 30.0003 	-8.46234e-08 	-6.05424e-06 30.0006 	-9.00507e-06 	-2.41361e-06 30.0006 	-9.00506e-06 	-2.41361e-06 30.0006 	-9.00505e-06 	-2.41361e-06 30.0006 	-9.00505e-06 	-2.41361e-06 30.0003 	-8.63836e-08 	-5.88782e-06 30.0006 	-8.90894e-06 	-2.32973e-06 30.0006 	-8.90893e-06 	-2.32973e-06 30.0006 	-8.90892e-06 	-2.32972e-06 30.0006 	-8.90891e-06 	-2.32972e-06 30.0003 	-3.9379e-06 	-5.36347e-06 30.0006 	-8.8089e-06 	-2.23275e-06 30.0006 	-8.8089e-06 	-2.23275e-06 30.0006 	-8.80889e-06 	-2.23275e-06 30.0006 	-8.80888e-06 	-2.23274e-06 30.0003 	-3.86412e-06 	-5.16476e-06 30.0006 	-8.70462e-06 	-2.12415e-06 30.0006 	-8.70461e-06 	-2.12414e-06 30.0006 	-8.70461e-06 	-2.12414e-06 30.0006 	-8.7046e-06 	-2.12414e-06 30.0003 	-9.16598e-08 	-5.28458e-06 30.0006 	-8.59645e-06 	-2.00508e-06 30.0006 	-8.59644e-06 	-2.00508e-06 30.0006 	-8.59644e-06 	-2.00508e-06 30.0006 	-8.59643e-06 	-2.00508e-06 30.0003 	-3.70452e-06 	-4.7194e-06 30.0007 	-8.48509e-06 	-1.87668e-06 30.0007 	-8.48508e-06 	-1.87668e-06 30.0007 	-8.48508e-06 	-1.87668e-06 30.0007 	-8.48507e-06 	-1.87668e-06 30.0003 	-3.61943e-06 	-4.47431e-06 30.0007 	-8.37175e-06 	-1.73884e-06 30.0007 	-8.37175e-06 	-1.73884e-06 30.0007 	-8.37174e-06 	-1.73884e-06 30.0007 	-8.37174e-06 	-1.73884e-06 30.0004 	-9.69209e-08 	-4.5432e-06 30.0007 	-8.26021e-06 	-1.59804e-06 30.0007 	-8.26021e-06 	-1.59804e-06 30.0007 	-8.2602e-06 	-1.59804e-06 30.0007 	-8.2602e-06 	-1.59804e-06 30.0004 	-9.86764e-08 	-4.27125e-06 30.0007 	-8.14823e-06 	-1.46324e-06 30.0007 	-8.14823e-06 	-1.46324e-06 30.0007 	-8.14822e-06 	-1.46324e-06 30.0007 	-8.14822e-06 	-1.46324e-06 30.0004 	-1.00424e-07 	-3.98928e-06 30.0007 	-8.02018e-06 	-1.32073e-06 30.0007 	-8.02018e-06 	-1.32072e-06 30.0007 	-8.02017e-06 	-1.32072e-06 30.0007 	-8.02017e-06 	-1.32072e-06 30.0004 	-3.25113e-06 	-3.37796e-06 30.0007 	-7.8814e-06 	-1.16801e-06 30.0007 	-7.8814e-06 	-1.16801e-06 30.0007 	-7.8814e-06 	-1.16801e-06 30.0007 	-7.88139e-06 	-1.16801e-06 30.0004 	-1.0388e-07 	-3.40289e-06 30.0007 	-7.7455e-06 	-1.00788e-06 30.0007 	-7.7455e-06 	-1.00788e-06 30.0007 	-7.7455e-06 	-1.00788e-06 30.0007 	-7.74549e-06 	-1.00788e-06 30.0004 	-1.05609e-07 	-3.10329e-06 30.0007 	-7.61139e-06 	-8.41867e-07 30.0007 	-7.61139e-06 	-8.41867e-07 30.0007 	-7.61139e-06 	-8.41866e-07 30.0007 	-7.61139e-06 	-8.41866e-07 30.0004 	-2.932e-06 	-2.48789e-06 30.0007 	-7.47564e-06 	-6.70215e-07 30.0007 	-7.47564e-06 	-6.70215e-07 30.0007 	-7.47564e-06 	-6.70214e-07 30.0007 	-7.47564e-06 	-6.70214e-07 30.0004 	-2.82555e-06 	-2.18314e-06 30.0007 	-7.34355e-06 	-4.97063e-07 30.0007 	-7.34355e-06 	-4.97062e-07 30.0007 	-7.34355e-06 	-4.97062e-07 30.0007 	-7.34354e-06 	-4.97062e-07 30.0004 	-1.10742e-07 	-2.17113e-06 30.0007 	-7.21578e-06 	-3.17335e-07 30.0007 	-7.21578e-06 	-3.17335e-07 30.0007 	-7.21578e-06 	-3.17335e-07 30.0007 	-7.21577e-06 	-3.17335e-07 30.0004 	-1.12435e-07 	-1.85339e-06 30.0007 	-7.09907e-06 	-1.38229e-07 30.0007 	-7.09906e-06 	-1.38229e-07 30.0007 	-7.09906e-06 	-1.38229e-07 30.0007 	-7.09906e-06 	-1.38229e-07 30.0004 	-1.14106e-07 	-1.54905e-06 30.0007 	-6.98576e-06 	4.08414e-08 30.0007 	-6.98576e-06 	4.08414e-08 30.0007 	-6.98576e-06 	4.08414e-08 30.0007 	-6.98576e-06 	4.08414e-08 30.0004 	-2.43916e-06 	-9.5852e-07 30.0007 	-6.87218e-06 	2.14654e-07 30.0007 	-6.87218e-06 	2.14654e-07 30.0007 	-6.87218e-06 	2.14654e-07 30.0007 	-6.87218e-06 	2.14654e-07 30.0004 	-2.34757e-06 	-6.82319e-07 30.0007 	-6.75409e-06 	3.90707e-07 30.0007 	-6.75409e-06 	3.90707e-07 30.0007 	-6.75409e-06 	3.90707e-07 30.0007 	-6.75409e-06 	3.90707e-07 30.0004 	-1.19131e-07 	-7.09795e-07 30.0007 	-6.64364e-06 	5.64364e-07 30.0007 	-6.64364e-06 	5.64364e-07 30.0007 	-6.64364e-06 	5.64365e-07 30.0007 	-6.64364e-06 	5.64365e-07 30.0004 	-2.16727e-06 	-1.45461e-07 30.0007 	-6.53667e-06 	7.27393e-07 30.0007 	-6.53667e-06 	7.27394e-07 30.0007 	-6.53667e-06 	7.27394e-07 30.0007 	-6.53668e-06 	7.27394e-07 30.0004 	-2.08161e-06 	1.13815e-07 30.0007 	-6.43139e-06 	8.78832e-07 30.0007 	-6.43139e-06 	8.78832e-07 30.0007 	-6.43139e-06 	8.78832e-07 30.0007 	-6.43139e-06 	8.78833e-07 30.0004 	-1.24088e-07 	7.05518e-08 30.0007 	-6.32386e-06 	1.01779e-06 30.0007 	-6.32386e-06 	1.01779e-06 30.0007 	-6.32386e-06 	1.01779e-06 30.0007 	-6.32387e-06 	1.01779e-06 30.0004 	-1.25691e-07 	3.15782e-07 30.0007 	-6.21751e-06 	1.14063e-06 30.0007 	-6.21751e-06 	1.14063e-06 30.0007 	-6.21751e-06 	1.14063e-06 30.0007 	-6.21752e-06 	1.14063e-06 30.0004 	-1.27281e-07 	5.45503e-07 30.0007 	-6.11625e-06 	1.25633e-06 30.0007 	-6.11626e-06 	1.25633e-06 30.0007 	-6.11626e-06 	1.25633e-06 30.0007 	-6.11626e-06 	1.25633e-06 30.0004 	-1.76482e-06 	1.03206e-06 30.0007 	-6.02353e-06 	1.37128e-06 30.0007 	-6.02353e-06 	1.37128e-06 30.0007 	-6.02354e-06 	1.37128e-06 30.0007 	-6.02354e-06 	1.37128e-06 30.0004 	-1.30392e-07 	9.36923e-07 30.0007 	-5.94387e-06 	1.48851e-06 30.0007 	-5.94388e-06 	1.48851e-06 30.0007 	-5.94388e-06 	1.48851e-06 30.0007 	-5.94388e-06 	1.48851e-06 30.0004 	-1.31895e-07 	1.10454e-06 30.0007 	-5.87266e-06 	1.5929e-06 30.0007 	-5.87267e-06 	1.5929e-06 30.0007 	-5.87267e-06 	1.5929e-06 30.0007 	-5.87267e-06 	1.5929e-06 30.0004 	-1.59194e-06 	1.53875e-06 30.0007 	-5.80305e-06 	1.67933e-06 30.0007 	-5.80306e-06 	1.67933e-06 30.0007 	-5.80306e-06 	1.67933e-06 30.0007 	-5.80306e-06 	1.67933e-06 30.0003 	-1.54472e-06 	1.67819e-06 30.0007 	-5.73501e-06 	1.75013e-06 30.0007 	-5.73501e-06 	1.75013e-06 30.0007 	-5.73501e-06 	1.75013e-06 30.0007 	-5.73502e-06 	1.75013e-06 30.0003 	-1.36591e-07 	1.52471e-06 30.0006 	-5.66985e-06 	1.80983e-06 30.0006 	-5.66985e-06 	1.80983e-06 30.0006 	-5.66986e-06 	1.80983e-06 30.0006 	-5.66986e-06 	1.80983e-06 30.0003 	-1.38134e-07 	1.63226e-06 30.0006 	-5.60976e-06 	1.85996e-06 30.0006 	-5.60976e-06 	1.85996e-06 30.0006 	-5.60977e-06 	1.85996e-06 30.0006 	-5.60977e-06 	1.85997e-06 30.0003 	-1.39589e-07 	1.72399e-06 30.0006 	-5.55544e-06 	1.90046e-06 30.0006 	-5.55545e-06 	1.90046e-06 30.0006 	-5.55545e-06 	1.90046e-06 30.0006 	-5.55545e-06 	1.90046e-06 30.0003 	-1.38935e-06 	2.07101e-06 30.0006 	-5.50658e-06 	1.93112e-06 30.0006 	-5.50659e-06 	1.93112e-06 30.0006 	-5.50659e-06 	1.93112e-06 30.0006 	-5.50659e-06 	1.93112e-06 30.0003 	-1.36231e-06 	2.13095e-06 30.0006 	-5.46282e-06 	1.95185e-06 30.0006 	-5.46283e-06 	1.95186e-06 30.0006 	-5.46283e-06 	1.95186e-06 30.0006 	-5.46283e-06 	1.95186e-06 30.0003 	-1.4357e-07 	1.90825e-06 30.0006 	-5.424e-06 	1.9628e-06 30.0006 	-5.424e-06 	1.9628e-06 30.0006 	-5.424e-06 	1.96281e-06 30.0006 	-5.42401e-06 	1.96281e-06 30.0003 	-1.32388e-06 	2.20764e-06 30.0006 	-5.39e-06 	1.96433e-06 30.0006 	-5.39001e-06 	1.96434e-06 30.0006 	-5.39001e-06 	1.96434e-06 30.0006 	-5.39002e-06 	1.96434e-06 30.0003 	-1.31209e-06 	2.22553e-06 30.0006 	-5.36079e-06 	1.95693e-06 30.0006 	-5.36079e-06 	1.95693e-06 30.0006 	-5.36079e-06 	1.95693e-06 30.0006 	-5.3608e-06 	1.95693e-06 30.0003 	-1.47373e-07 	1.96616e-06 30.0005 	-5.33624e-06 	1.94113e-06 30.0005 	-5.33625e-06 	1.94113e-06 30.0005 	-5.33625e-06 	1.94113e-06 30.0005 	-5.33625e-06 	1.94113e-06 30.0003 	-1.48594e-07 	1.96056e-06 30.0005 	-5.31621e-06 	1.91794e-06 30.0005 	-5.31622e-06 	1.91794e-06 30.0005 	-5.31622e-06 	1.91794e-06 30.0005 	-5.31622e-06 	1.91794e-06 30.0003 	-1.49791e-07 	1.94423e-06 30.0005 	-5.30058e-06 	1.888e-06 30.0005 	-5.30059e-06 	1.88801e-06 30.0005 	-5.30059e-06 	1.88801e-06 30.0005 	-5.30059e-06 	1.88801e-06 30.0003 	-1.30945e-06 	2.17898e-06 30.0005 	-5.2892e-06 	1.8519e-06 30.0005 	-5.2892e-06 	1.8519e-06 30.0005 	-5.28921e-06 	1.85191e-06 30.0005 	-5.28921e-06 	1.85191e-06 30.0003 	-1.52103e-07 	1.88229e-06 30.0005 	-5.28188e-06 	1.81008e-06 30.0005 	-5.28188e-06 	1.81008e-06 30.0005 	-5.28189e-06 	1.81008e-06 30.0005 	-5.28189e-06 	1.81008e-06 30.0003 	-1.53206e-07 	1.83816e-06 30.0005 	-5.27841e-06 	1.76315e-06 30.0005 	-5.27841e-06 	1.76316e-06 30.0005 	-5.27842e-06 	1.76316e-06 30.0005 	-5.27842e-06 	1.76316e-06 30.0003 	-1.34863e-06 	2.04406e-06 30.0005 	-5.27855e-06 	1.71162e-06 30.0005 	-5.27856e-06 	1.71162e-06 30.0005 	-5.27856e-06 	1.71162e-06 30.0005 	-5.27856e-06 	1.71162e-06 30.0003 	-1.36869e-06 	1.98422e-06 30.0005 	-5.28209e-06 	1.65598e-06 30.0005 	-5.28209e-06 	1.65598e-06 30.0005 	-5.28209e-06 	1.65598e-06 30.0005 	-5.2821e-06 	1.65599e-06 30.0002 	-1.56379e-07 	1.66279e-06 30.0005 	-5.28885e-06 	1.59667e-06 30.0005 	-5.28886e-06 	1.59667e-06 30.0005 	-5.28886e-06 	1.59667e-06 30.0005 	-5.28886e-06 	1.59667e-06 30.0002 	-1.57423e-07 	1.59254e-06 30.0004 	-5.29878e-06 	1.53414e-06 30.0004 	-5.29879e-06 	1.53414e-06 30.0004 	-5.29879e-06 	1.53414e-06 30.0004 	-5.29879e-06 	1.53414e-06 30.0002 	-1.5849e-07 	1.51768e-06 30.0004 	-5.3117e-06 	1.46888e-06 30.0004 	-5.31171e-06 	1.46888e-06 30.0004 	-5.31171e-06 	1.46888e-06 30.0004 	-5.31171e-06 	1.46888e-06 30.0002 	-1.48032e-06 	1.69061e-06 30.0004 	-5.32722e-06 	1.40142e-06 30.0004 	-5.32723e-06 	1.40142e-06 30.0004 	-5.32723e-06 	1.40142e-06 30.0004 	-5.32723e-06 	1.40142e-06 30.0002 	-1.51484e-06 	1.60712e-06 30.0004 	-5.3451e-06 	1.33217e-06 30.0004 	-5.3451e-06 	1.33217e-06 30.0004 	-5.3451e-06 	1.33217e-06 30.0004 	-5.3451e-06 	1.33217e-06 30.0002 	-1.61717e-07 	1.27185e-06 30.0004 	-5.3651e-06 	1.26146e-06 30.0004 	-5.3651e-06 	1.26146e-06 30.0004 	-5.36511e-06 	1.26146e-06 30.0004 	-5.36511e-06 	1.26146e-06 30.0002 	-1.59016e-06 	1.43249e-06 30.0004 	-5.3869e-06 	1.18979e-06 30.0004 	-5.38691e-06 	1.18979e-06 30.0004 	-5.38691e-06 	1.18979e-06 30.0004 	-5.38691e-06 	1.18979e-06 30.0002 	-1.63065e-06 	1.34241e-06 30.0004 	-5.4105e-06 	1.11746e-06 30.0004 	-5.41051e-06 	1.11746e-06 30.0004 	-5.41051e-06 	1.11746e-06 30.0004 	-5.41051e-06 	1.11746e-06 30.0002 	-1.64727e-07 	1.00607e-06 30.0004 	-5.43563e-06 	1.04478e-06 30.0004 	-5.43564e-06 	1.04478e-06 30.0004 	-5.43564e-06 	1.04478e-06 30.0004 	-5.43564e-06 	1.04478e-06 30.0002 	-1.65676e-07 	9.15603e-07 30.0004 	-5.46127e-06 	9.72249e-07 30.0004 	-5.46127e-06 	9.7225e-07 30.0004 	-5.46127e-06 	9.7225e-07 30.0004 	-5.46128e-06 	9.7225e-07 30.0002 	-1.66575e-07 	8.24982e-07 30.0004 	-5.48729e-06 	8.99473e-07 30.0004 	-5.4873e-06 	8.99474e-07 30.0004 	-5.4873e-06 	8.99474e-07 30.0004 	-5.4873e-06 	8.99474e-07 30.0002 	-1.80753e-06 	9.75418e-07 30.0004 	-5.51406e-06 	8.25943e-07 30.0004 	-5.51406e-06 	8.25943e-07 30.0004 	-5.51406e-06 	8.25943e-07 30.0004 	-5.51406e-06 	8.25943e-07 30.0002 	-1.68269e-07 	6.43616e-07 30.0003 	-5.54379e-06 	7.51984e-07 30.0003 	-5.5438e-06 	7.51985e-07 30.0003 	-5.5438e-06 	7.51985e-07 30.0003 	-5.5438e-06 	7.51985e-07 30.0002 	-1.69102e-07 	5.52624e-07 30.0003 	-5.57827e-06 	6.77443e-07 30.0003 	-5.57827e-06 	6.77443e-07 30.0003 	-5.57827e-06 	6.77443e-07 30.0003 	-5.57827e-06 	6.77443e-07 30.0002 	-1.95589e-06 	7.01315e-07 30.0003 	-5.61511e-06 	6.04375e-07 30.0003 	-5.61511e-06 	6.04376e-07 30.0003 	-5.61512e-06 	6.04376e-07 30.0003 	-5.61512e-06 	6.04376e-07 30.0002 	-2.00808e-06 	6.11686e-07 30.0003 	-5.65123e-06 	5.34667e-07 30.0003 	-5.65123e-06 	5.34667e-07 30.0003 	-5.65123e-06 	5.34667e-07 30.0003 	-5.65123e-06 	5.34667e-07 30.0002 	-1.71594e-07 	2.80931e-07 30.0003 	-5.68234e-06 	4.67648e-07 30.0003 	-5.68234e-06 	4.67648e-07 30.0003 	-5.68234e-06 	4.67648e-07 30.0003 	-5.68234e-06 	4.67648e-07 30.0002 	-1.72424e-07 	1.97319e-07 30.0003 	-5.71075e-06 	4.03207e-07 30.0003 	-5.71075e-06 	4.03207e-07 30.0003 	-5.71075e-06 	4.03207e-07 30.0003 	-5.71076e-06 	4.03207e-07 30.0002 	-1.73219e-07 	1.1639e-07 30.0003 	-5.73892e-06 	3.39245e-07 30.0003 	-5.73892e-06 	3.39245e-07 30.0003 	-5.73892e-06 	3.39245e-07 30.0003 	-5.73892e-06 	3.39245e-07 30.0002 	-2.20134e-06 	2.74092e-07 30.0003 	-5.76688e-06 	2.75278e-07 30.0003 	-5.76688e-06 	2.75278e-07 30.0003 	-5.76688e-06 	2.75278e-07 30.0003 	-5.76688e-06 	2.75278e-07 30.0002 	-2.24827e-06 	1.96351e-07 30.0003 	-5.79368e-06 	2.10802e-07 30.0003 	-5.79368e-06 	2.10802e-07 30.0003 	-5.79368e-06 	2.10802e-07 30.0003 	-5.79368e-06 	2.10802e-07 30.0002 	-1.75407e-07 	-1.09149e-07 30.0003 	-5.82172e-06 	1.48804e-07 30.0003 	-5.82172e-06 	1.48804e-07 30.0003 	-5.82172e-06 	1.48804e-07 30.0003 	-5.82172e-06 	1.48804e-07 30.0002 	-2.34206e-06 	4.46725e-08 30.0003 	-5.85097e-06 	9.00106e-08 30.0003 	-5.85097e-06 	9.00106e-08 30.0003 	-5.85097e-06 	9.00106e-08 30.0003 	-5.85097e-06 	9.00106e-08 30.0002 	-2.38937e-06 	-2.91014e-08 30.0003 	-5.88139e-06 	3.4841e-08 30.0003 	-5.88139e-06 	3.4841e-08 30.0003 	-5.88139e-06 	3.4841e-08 30.0003 	-5.88139e-06 	3.4841e-08 30.0002 	-1.77423e-07 	-3.3077e-07 30.0003 	-5.9132e-06 	-1.70332e-08 30.0003 	-5.9132e-06 	-1.70332e-08 30.0003 	-5.9132e-06 	-1.70332e-08 30.0003 	-5.9132e-06 	-1.70332e-08 30.0002 	-1.7806e-07 	-4.018e-07 30.0003 	-5.94631e-06 	-6.90089e-08 30.0003 	-5.94631e-06 	-6.90089e-08 30.0003 	-5.94631e-06 	-6.90089e-08 30.0003 	-5.94631e-06 	-6.90089e-08 30.0002 	-1.78658e-07 	-4.67069e-07 30.0003 	-5.97825e-06 	-1.2327e-07 30.0003 	-5.97825e-06 	-1.2327e-07 30.0003 	-5.97825e-06 	-1.2327e-07 30.0003 	-5.97825e-06 	-1.2327e-07 30.0002 	-2.58088e-06 	-3.01373e-07 30.0003 	-6.00601e-06 	-1.77912e-07 30.0003 	-6.00601e-06 	-1.77912e-07 30.0003 	-6.00601e-06 	-1.77912e-07 30.0003 	-6.00601e-06 	-1.77912e-07 30.0002 	-1.79826e-07 	-5.84876e-07 30.0003 	-6.03014e-06 	-2.29167e-07 30.0003 	-6.03014e-06 	-2.29167e-07 30.0003 	-6.03014e-06 	-2.29167e-07 30.0003 	-6.03014e-06 	-2.29166e-07 30.0002 	-1.80424e-07 	-6.42136e-07 30.0003 	-6.05337e-06 	-2.76129e-07 30.0003 	-6.05336e-06 	-2.76129e-07 30.0003 	-6.05336e-06 	-2.76129e-07 30.0003 	-6.05336e-06 	-2.76129e-07 30.0002 	-2.70892e-06 	-4.78973e-07 30.0003 	-6.0772e-06 	-3.19611e-07 30.0003 	-6.0772e-06 	-3.19611e-07 30.0003 	-6.0772e-06 	-3.19611e-07 30.0003 	-6.0772e-06 	-3.19611e-07 30.0002 	-2.74995e-06 	-5.34016e-07 30.0003 	-6.1015e-06 	-3.61136e-07 30.0003 	-6.1015e-06 	-3.61136e-07 30.0003 	-6.1015e-06 	-3.61136e-07 30.0003 	-6.1015e-06 	-3.61136e-07 30.0002 	-1.82146e-07 	-8.0377e-07 30.0003 	-6.12553e-06 	-4.01331e-07 30.0003 	-6.12553e-06 	-4.01331e-07 30.0003 	-6.12553e-06 	-4.01331e-07 30.0003 	-6.12552e-06 	-4.01331e-07 30.0001 	-1.82682e-07 	-8.53086e-07 30.0003 	-6.1489e-06 	-4.40325e-07 30.0003 	-6.1489e-06 	-4.40325e-07 30.0003 	-6.1489e-06 	-4.40325e-07 30.0003 	-6.14889e-06 	-4.40324e-07 30.0001 	-1.83201e-07 	-9.00294e-07 30.0003 	-6.17153e-06 	-4.77948e-07 30.0003 	-6.17152e-06 	-4.77948e-07 30.0003 	-6.17152e-06 	-4.77947e-07 30.0003 	-6.17152e-06 	-4.77947e-07 30.0001 	-2.9094e-06 	-7.31445e-07 30.0003 	-6.19329e-06 	-5.14163e-07 30.0003 	-6.19329e-06 	-5.14163e-07 30.0003 	-6.19329e-06 	-5.14163e-07 30.0003 	-6.19329e-06 	-5.14163e-07 30.0001 	-2.94727e-06 	-7.7557e-07 30.0003 	-6.21425e-06 	-5.48782e-07 30.0003 	-6.21425e-06 	-5.48782e-07 30.0003 	-6.21425e-06 	-5.48782e-07 30.0003 	-6.21425e-06 	-5.48781e-07 30.0001 	-1.847e-07 	-1.0295e-06 30.0003 	-6.23437e-06 	-5.81996e-07 30.0003 	-6.23437e-06 	-5.81995e-07 30.0003 	-6.23437e-06 	-5.81995e-07 30.0003 	-6.23437e-06 	-5.81995e-07 30.0001 	-3.02026e-06 	-8.57457e-07 30.0003 	-6.25362e-06 	-6.1384e-07 30.0003 	-6.25361e-06 	-6.1384e-07 30.0003 	-6.25361e-06 	-6.1384e-07 30.0003 	-6.25361e-06 	-6.1384e-07 30.0001 	-3.05535e-06 	-8.95465e-07 30.0003 	-6.2721e-06 	-6.44366e-07 30.0003 	-6.27209e-06 	-6.44366e-07 30.0003 	-6.27209e-06 	-6.44366e-07 30.0003 	-6.27209e-06 	-6.44366e-07 30.0001 	-1.86101e-07 	-1.14081e-06 30.0003 	-6.28989e-06 	-6.73568e-07 30.0003 	-6.28988e-06 	-6.73568e-07 30.0003 	-6.28988e-06 	-6.73568e-07 30.0003 	-6.28988e-06 	-6.73568e-07 30.0001 	-1.86555e-07 	-1.17456e-06 30.0003 	-6.30688e-06 	-7.01387e-07 30.0003 	-6.30688e-06 	-7.01387e-07 30.0003 	-6.30688e-06 	-7.01387e-07 30.0003 	-6.30687e-06 	-7.01386e-07 30.0001 	-1.86992e-07 	-1.20665e-06 30.0003 	-6.32293e-06 	-7.27822e-07 30.0003 	-6.32293e-06 	-7.27821e-07 30.0003 	-6.32293e-06 	-7.27821e-07 30.0003 	-6.32293e-06 	-7.27821e-07 30.0001 	-3.18677e-06 	-1.03099e-06 30.0003 	-6.33817e-06 	-7.52933e-07 30.0003 	-6.33817e-06 	-7.52933e-07 30.0003 	-6.33817e-06 	-7.52933e-07 30.0003 	-6.33816e-06 	-7.52933e-07 30.0001 	-1.87831e-07 	-1.26593e-06 30.0003 	-6.35268e-06 	-7.76903e-07 30.0003 	-6.35267e-06 	-7.76903e-07 30.0003 	-6.35267e-06 	-7.76903e-07 30.0003 	-6.35267e-06 	-7.76903e-07 30.0001 	-1.8824e-07 	-1.29329e-06 30.0003 	-6.36645e-06 	-7.99776e-07 30.0003 	-6.36645e-06 	-7.99776e-07 30.0003 	-6.36645e-06 	-7.99775e-07 30.0003 	-6.36645e-06 	-7.99775e-07 30.0001 	-3.27614e-06 	-1.11603e-06 30.0003 	-6.3795e-06 	-8.21506e-07 30.0003 	-6.3795e-06 	-8.21506e-07 30.0003 	-6.3795e-06 	-8.21506e-07 30.0003 	-6.3795e-06 	-8.21506e-07 30.0001 	-3.30425e-06 	-1.14151e-06 30.0003 	-6.39183e-06 	-8.41943e-07 30.0003 	-6.39182e-06 	-8.41942e-07 30.0003 	-6.39182e-06 	-8.41942e-07 30.0003 	-6.39182e-06 	-8.41942e-07 30.0001 	-1.89409e-07 	-1.36683e-06 30.0003 	-6.40344e-06 	-8.61339e-07 30.0003 	-6.40344e-06 	-8.61339e-07 30.0003 	-6.40343e-06 	-8.61339e-07 30.0003 	-6.40343e-06 	-8.61338e-07 30.0001 	-1.89786e-07 	-1.38871e-06 30.0003 	-6.41435e-06 	-8.79779e-07 30.0003 	-6.41435e-06 	-8.79779e-07 30.0003 	-6.41435e-06 	-8.79778e-07 30.0003 	-6.41434e-06 	-8.79778e-07 30.0001 	-1.90154e-07 	-1.40936e-06 30.0003 	-6.42457e-06 	-8.97268e-07 30.0003 	-6.42457e-06 	-8.97267e-07 30.0003 	-6.42457e-06 	-8.97267e-07 30.0003 	-6.42456e-06 	-8.97267e-07 30.0001 	-3.40855e-06 	-1.23051e-06 30.0003 	-6.43412e-06 	-9.13854e-07 30.0003 	-6.43412e-06 	-9.13853e-07 30.0003 	-6.43412e-06 	-9.13853e-07 30.0003 	-6.43412e-06 	-9.13853e-07 30.0001 	-3.43268e-06 	-1.24984e-06 30.0003 	-6.44305e-06 	-9.29541e-07 30.0003 	-6.44304e-06 	-9.2954e-07 30.0003 	-6.44304e-06 	-9.2954e-07 30.0003 	-6.44304e-06 	-9.2954e-07 30.0001 	-1.91243e-07 	-1.46453e-06 30.0003 	-6.45134e-06 	-9.44394e-07 30.0003 	-6.45134e-06 	-9.44394e-07 30.0003 	-6.45134e-06 	-9.44393e-07 30.0003 	-6.45133e-06 	-9.44393e-07 30.0001 	-3.47877e-06 	-1.28533e-06 30.0003 	-6.459e-06 	-9.58402e-07 30.0003 	-6.459e-06 	-9.58401e-07 30.0003 	-6.459e-06 	-9.58401e-07 30.0003 	-6.45899e-06 	-9.58401e-07 30.0001 	-3.50083e-06 	-1.30159e-06 30.0003 	-6.46608e-06 	-9.71694e-07 30.0003 	-6.46608e-06 	-9.71694e-07 30.0003 	-6.46608e-06 	-9.71693e-07 30.0003 	-6.46607e-06 	-9.71693e-