# vtk DataFile Version 2.0
track0
ASCII
DATASET POLYDATA
POINTS 15780 float
-1.001 -0.05 0.0011
-1.0008 -0.05 0.0011
-1.0006 -0.05 0.0011
-1.0004 -0.05 0.0011
-1.0002 -0.05 0.0011
-1 -0.05 0.0011
-0.9875 -0.05 0.0011
-0.975 -0.05 0.0011
-0.9625 -0.05 0.0011
-0.95 -0.05 0.0011
-0.9375 -0.05 0.00109999
-0.925 -0.05 0.00109999
-0.9125 -0.05 0.00109999
-0.9 -0.05 0.00109999
-0.8875 -0.05 0.00109999
-0.875 -0.05 0.00109999
-0.8625 -0.05 0.00109999
-0.85 -0.05 0.00109999
-0.8375 -0.05 0.00109998
-0.825 -0.0500001 0.00109998
-0.8125 -0.0500001 0.00109998
-0.8 -0.0500001 0.00109998
-0.7875 -0.0500001 0.00109998
-0.775 -0.0500001 0.00109998
-0.7625 -0.0500001 0.00109998
-0.75 -0.0500001 0.00109998
-0.7375 -0.0500001 0.00109997
-0.725 -0.0500001 0.00109997
-0.7125 -0.0500001 0.00109997
-0.7 -0.0500001 0.00109997
-0.6875 -0.0500001 0.00109997
-0.675 -0.0500001 0.00109997
-0.6625 -0.0500001 0.00109997
-0.65 -0.0500001 0.00109996
-0.6375 -0.0500001 0.00109996
-0.625 -0.0500001 0.00109996
-0.6125 -0.0500001 0.00109996
-0.6 -0.0500001 0.00109996
-0.5875 -0.0500001 0.00109996
-0.575 -0.0500001 0.00109996
-0.5625 -0.0500001 0.00109996
-0.55 -0.0500001 0.00109995
-0.5375 -0.0500001 0.00109995
-0.525 -0.0500001 0.00109995
-0.5125 -0.0500001 0.00109995
-0.5 -0.0500001 0.00109995
-0.4875 -0.0500001 0.00109995
-0.475 -0.0500001 0.00109995
-0.4625 -0.0500001 0.00109994
-0.45 -0.0500002 0.00109994
-0.4375 -0.0500002 0.00109994
-0.425 -0.0500002 0.00109994
-0.4125 -0.0500002 0.00109994
-0.4 -0.0500002 0.00109994
-0.3875 -0.0500002 0.00109994
-0.375 -0.0500002 0.00109994
-0.3625 -0.0500002 0.00109993
-0.35 -0.0500002 0.00109993
-0.3375 -0.0500002 0.00109993
-0.325 -0.0500002 0.00109993
-0.3125 -0.0500002 0.00109993
-0.3 -0.0500002 0.00109993
-0.2875 -0.0500002 0.00109993
-0.275 -0.0500002 0.00109993
-0.2625 -0.0500002 0.00109992
-0.25 -0.0500002 0.00109992
-0.2375 -0.0500002 0.00109992
-0.225 -0.0500002 0.00109992
-0.2125 -0.0500002 0.00109992
-0.2 -0.0500002 0.00109992
-0.1875 -0.0500002 0.00109992
-0.175 -0.0500002 0.00109992
-0.1625 -0.0500002 0.00109991
-0.15 -0.0500002 0.00109991
-0.1375 -0.0500002 0.00109991
-0.125 -0.0500002 0.00109991
-0.1125 -0.0500002 0.00109991
-0.1 -0.0500002 0.00109991
-0.0875 -0.0500002 0.00109991
-0.075 -0.0500002 0.00109991
-0.0625 -0.0500002 0.00109991
-0.05 -0.0500003 0.00109991
-0.0375 -0.0500003 0.0010999
-0.025 -0.0500003 0.0010999
-0.0125 -0.0500003 0.0010999
2.10607e-13 -0.0500003 0.0010999
0.0125 -0.0500003 0.0010999
0.025 -0.0500003 0.0010999
0.0375 -0.0500003 0.0010999
0.05 -0.0500003 0.0010999
0.0625 -0.0500003 0.0010999
0.075 -0.0500003 0.0010999
0.0875 -0.0500003 0.0010999
0.1 -0.0500003 0.00109989
0.1125 -0.0500003 0.00109989
0.125 -0.0500003 0.00109989
0.1375 -0.0500003 0.00109989
0.15 -0.0500003 0.00109989
0.1625 -0.0500003 0.00109989
0.175 -0.0500003 0.00109989
0.1875 -0.0500003 0.00109989
0.2 -0.0500003 0.00109989
0.2125 -0.0500003 0.00109989
0.225 -0.0500003 0.00109989
0.2375 -0.0500003 0.00109989
0.25 -0.0500003 0.00109989
0.2625 -0.0500003 0.00109988
0.275 -0.0500003 0.00109988
0.2875 -0.0500003 0.00109988
0.3 -0.0500003 0.00109988
0.3125 -0.0500003 0.00109988
0.325 -0.0500003 0.00109988
0.3375 -0.0500003 0.00109988
0.35 -0.0500003 0.00109988
0.3625 -0.0500003 0.00109988
0.375 -0.0500003 0.00109988
0.3875 -0.0500003 0.00109988
0.4 -0.0500004 0.00109988
0.4125 -0.0500004 0.00109988
0.425 -0.0500004 0.00109988
0.4375 -0.0500004 0.00109988
0.45 -0.0500004 0.00109988
0.4625 -0.0500004 0.00109988
0.475 -0.0500004 0.00109988
0.4875 -0.0500004 0.00109988
0.5 -0.0500004 0.00109988
0.5125 -0.0500004 0.00109988
0.525 -0.0500004 0.00109988
0.5375 -0.0500004 0.00109988
0.55 -0.0500004 0.00109988
0.5625 -0.0500004 0.00109988
0.575 -0.0500004 0.00109987
0.5875 -0.0500004 0.00109987
0.6 -0.0500004 0.00109987
0.6125 -0.0500004 0.00109987
0.625 -0.0500004 0.00109987
0.6375 -0.0500004 0.00109987
0.65 -0.0500004 0.00109987
0.6625 -0.0500004 0.00109987
0.675 -0.0500004 0.00109987
0.6875 -0.0500004 0.00109987
0.7 -0.0500004 0.00109987
0.7125 -0.0500004 0.00109987
0.725 -0.0500004 0.00109987
0.7375 -0.0500004 0.00109987
0.75 -0.0500004 0.00109987
0.7625 -0.0500004 0.00109987
0.775 -0.0500004 0.00109987
0.7875 -0.0500004 0.00109987
0.8 -0.0500004 0.00109987
0.8125 -0.0500004 0.00109987
0.825 -0.0500004 0.00109987
0.8375 -0.0500004 0.00109987
0.85 -0.0500004 0.00109987
0.8625 -0.0500004 0.00109987
0.875 -0.0500004 0.00109987
0.8875 -0.0500004 0.00109987
0.9 -0.0500004 0.00109987
0.9125 -0.0500005 0.00109988
0.925 -0.0500005 0.00109988
0.9375 -0.0500005 0.00109988
0.95 -0.0500005 0.00109988
0.9625 -0.0500005 0.00109988
0.975 -0.0500005 0.00109988
0.9875 -0.0500005 0.00109988
1 -0.0500005 0.00109988
1.0125 -0.0500005 0.00109988
1.025 -0.0500005 0.00109988
1.0375 -0.0500005 0.00109988
1.05 -0.0500005 0.00109988
1.0625 -0.0500005 0.00109988
1.075 -0.0500005 0.00109988
1.0875 -0.0500005 0.00109988
1.1 -0.0500005 0.00109988
1.1125 -0.0500005 0.00109988
1.125 -0.0500005 0.00109988
1.1375 -0.0500005 0.00109988
1.15 -0.0500005 0.00109988
1.1625 -0.0500005 0.00109988
1.175 -0.0500005 0.00109988
1.1875 -0.0500005 0.00109988
1.2 -0.0500005 0.00109988
1.2125 -0.0500005 0.00109988
1.225 -0.0500005 0.00109988
1.2375 -0.0500005 0.00109989
1.25 -0.0500005 0.00109989
1.2625 -0.0500005 0.00109989
1.275 -0.0500005 0.00109989
1.2875 -0.0500005 0.00109989
1.3 -0.0500005 0.00109989
1.3125 -0.0500005 0.00109989
1.325 -0.0500005 0.00109989
1.3375 -0.0500005 0.00109989
1.35 -0.0500005 0.00109989
1.3625 -0.0500005 0.00109989
1.375 -0.0500005 0.00109989
1.3875 -0.0500005 0.00109989
1.4 -0.0500005 0.00109989
1.4125 -0.0500005 0.00109989
1.425 -0.0500005 0.00109989
1.4375 -0.0500005 0.0010999
1.45 -0.0500005 0.0010999
1.4625 -0.0500005 0.0010999
1.475 -0.0500005 0.0010999
1.4875 -0.0500005 0.0010999
1.5 -0.0500006 0.0010999
1.5125 -0.0500006 0.0010999
1.525 -0.0500006 0.0010999
1.5375 -0.0500006 0.0010999
1.55 -0.0500006 0.0010999
1.5625 -0.0500006 0.0010999
1.575 -0.0500006 0.0010999
1.5875 -0.0500006 0.0010999
1.6 -0.0500006 0.0010999
1.6125 -0.0500006 0.00109991
1.625 -0.0500006 0.00109991
1.6375 -0.0500006 0.00109991
1.65 -0.0500006 0.00109991
1.6625 -0.0500006 0.00109991
1.675 -0.0500006 0.00109991
1.6875 -0.0500006 0.00109991
1.7 -0.0500006 0.00109991
1.7125 -0.0500006 0.00109991
1.725 -0.0500006 0.00109991
1.7375 -0.0500006 0.00109991
1.75 -0.0500006 0.00109991
1.7625 -0.0500006 0.00109992
1.775 -0.0500006 0.00109992
1.7875 -0.0500006 0.00109992
1.8 -0.0500006 0.00109992
1.8125 -0.0500006 0.00109992
1.825 -0.0500006 0.00109992
1.8375 -0.0500006 0.00109992
1.85 -0.0500006 0.00109992
1.8625 -0.0500006 0.00109992
1.875 -0.0500006 0.00109992
1.8875 -0.0500006 0.00109992
1.9 -0.0500006 0.00109992
1.9125 -0.0500006 0.00109993
1.925 -0.0500006 0.00109993
1.9375 -0.0500006 0.00109993
1.95 -0.0500006 0.00109993
1.9625 -0.0500006 0.00109993
1.975 -0.0500006 0.00109993
1.9875 -0.0500006 0.00109993
2 -0.0500006 0.00109993
2.0125 -0.0500006 0.00109993
2.025 -0.0500006 0.00109993
2.0375 -0.0500006 0.00109993
2.05 -0.0500006 0.00109993
2.0625 -0.0500006 0.00109994
2.075 -0.0500006 0.00109994
2.0875 -0.0500006 0.00109994
2.1 -0.0500006 0.00109994
2.1125 -0.0500006 0.00109994
2.125 -0.0500006 0.00109994
2.1375 -0.0500006 0.00109994
2.15 -0.0500006 0.00109994
2.1625 -0.0500006 0.00109994
2.175 -0.0500007 0.00109994
2.1875 -0.0500007 0.00109994
2.2 -0.0500007 0.00109994
2.2125 -0.0500007 0.00109994
2.225 -0.0500007 0.00109995
2.2375 -0.0500007 0.00109995
2.25 -0.0500007 0.00109995
2.2625 -0.0500007 0.00109995
2.275 -0.0500007 0.00109995
2.2875 -0.0500007 0.00109995
2.3 -0.0500007 0.00109995
2.3125 -0.0500007 0.00109995
2.325 -0.0500007 0.00109995
2.3375 -0.0500007 0.00109995
2.35 -0.0500007 0.00109995
2.3625 -0.0500007 0.00109995
2.375 -0.0500007 0.00109995
2.3875 -0.0500007 0.00109996
2.4 -0.0500007 0.00109996
2.4125 -0.0500007 0.00109996
2.425 -0.0500007 0.00109996
2.4375 -0.0500007 0.00109996
2.45 -0.0500007 0.00109996
2.4625 -0.0500007 0.00109996
2.475 -0.0500007 0.00109996
2.4875 -0.0500007 0.00109996
2.5 -0.0500007 0.00109996
2.5125 -0.0500007 0.00109996
2.525 -0.0500007 0.00109996
2.5375 -0.0500007 0.00109996
2.55 -0.0500007 0.00109996
2.5625 -0.0500007 0.00109997
2.575 -0.0500007 0.00109997
2.5875 -0.0500007 0.00109997
2.6 -0.0500007 0.00109997
2.6125 -0.0500007 0.00109997
2.625 -0.0500007 0.00109997
2.6375 -0.0500007 0.00109997
2.65 -0.0500007 0.00109997
2.6625 -0.0500007 0.00109997
2.675 -0.0500007 0.00109997
2.6875 -0.0500007 0.00109997
2.7 -0.0500007 0.00109997
2.7125 -0.0500007 0.00109997
2.725 -0.0500007 0.00109997
2.7375 -0.0500007 0.00109997
2.75 -0.0500007 0.00109997
2.7625 -0.0500007 0.00109998
2.775 -0.0500007 0.00109998
2.7875 -0.0500007 0.00109998
2.8 -0.0500007 0.00109998
2.8125 -0.0500007 0.00109998
2.825 -0.0500007 0.00109998
2.8375 -0.0500007 0.00109998
2.85 -0.0500007 0.00109998
2.8625 -0.0500008 0.00109998
2.875 -0.0500008 0.00109998
2.8875 -0.0500008 0.00109998
2.9 -0.0500008 0.00109998
2.9125 -0.0500008 0.00109998
2.925 -0.0500008 0.00109998
2.9375 -0.0500008 0.00109998
2.95 -0.0500008 0.00109998
2.9625 -0.0500008 0.00109998
2.975 -0.0500008 0.00109998
2.9875 -0.0500008 0.00109998
3 -0.0500008 0.00109998
3.0125 -0.0500008 0.00109999
3.025 -0.0500008 0.00109999
3.0375 -0.0500008 0.00109999
3.05 -0.0500008 0.00109999
3.0625 -0.0500008 0.00109999
3.075 -0.0500008 0.00109999
3.0875 -0.0500008 0.00109999
3.1 -0.0500008 0.00109999
3.1125 -0.0500008 0.00109999
3.125 -0.0500008 0.00109999
3.1375 -0.0500008 0.00109999
3.15 -0.0500008 0.00109999
3.1625 -0.0500008 0.00109999
3.175 -0.0500008 0.00109999
3.1875 -0.0500008 0.00109999
3.2 -0.0500008 0.00109999
3.2125 -0.0500008 0.00109999
3.225 -0.0500008 0.00109999
3.2375 -0.0500008 0.00109999
3.25 -0.0500008 0.00109999
3.2625 -0.0500008 0.00109999
3.275 -0.0500008 0.00109999
3.2875 -0.0500008 0.00109999
3.3 -0.0500008 0.00109999
3.3125 -0.0500008 0.00109999
3.325 -0.0500008 0.00109999
3.3375 -0.0500008 0.00109999
3.35 -0.0500008 0.0011
3.3625 -0.0500008 0.0011
[...]
POINT_DATA 15780
 FIELD attributes 1
U 3 15780 float
30.0002 	-7.01764e-06 	-6.30587e-06 30.0002 	-6.84316e-06 	-6.51454e-06 30.0002 	-6.66867e-06 	-6.72321e-06 30.0002 	-6.49419e-06 	-6.93188e-06 30.0002 	-6.31971e-06 	-7.14054e-06 30.0002 	-6.14523e-06 	-7.34921e-06 30.0004 	-1.23847e-05 	-1.26099e-06 30.0004 	-1.23847e-05 	-1.26099e-06 30.0004 	-1.23847e-05 	-1.26099e-06 30.0004 	-1.23847e-05 	-1.26099e-06 30.0002 	-7.03207e-08 	-6.84367e-06 30.0005 	-1.07086e-05 	-1.68705e-06 30.0005 	-1.07086e-05 	-1.68705e-06 30.0005 	-1.07086e-05 	-1.68704e-06 30.0005 	-1.07086e-05 	-1.68704e-06 30.0002 	-7.20008e-08 	-6.59608e-06 30.0005 	-9.95806e-06 	-2.08023e-06 30.0005 	-9.95806e-06 	-2.08022e-06 30.0005 	-9.95805e-06 	-2.08022e-06 30.0005 	-9.95804e-06 	-2.08022e-06 30.0003 	-4.59287e-06 	-6.24726e-06 30.0005 	-9.6913e-06 	-2.34896e-06 30.0005 	-9.69129e-06 	-2.34895e-06 30.0005 	-9.69128e-06 	-2.34895e-06 30.0005 	-9.69127e-06 	-2.34895e-06 30.0003 	-7.56023e-08 	-6.57616e-06 30.0005 	-9.52313e-06 	-2.49783e-06 30.0005 	-9.52313e-06 	-2.49783e-06 30.0005 	-9.52312e-06 	-2.49782e-06 30.0005 	-9.52311e-06 	-2.49782e-06 30.0003 	-7.73657e-08 	-6.52627e-06 30.0005 	-9.38677e-06 	-2.55607e-06 30.0005 	-9.38676e-06 	-2.55607e-06 30.0005 	-9.38675e-06 	-2.55607e-06 30.0005 	-9.38674e-06 	-2.55607e-06 30.0003 	-4.26671e-06 	-6.08529e-06 30.0005 	-9.27935e-06 	-2.5583e-06 30.0005 	-9.27934e-06 	-2.5583e-06 30.0005 	-9.27933e-06 	-2.5583e-06 30.0005 	-9.27932e-06 	-2.5583e-06 30.0003 	-4.19911e-06 	-5.9779e-06 30.0006 	-9.18718e-06 	-2.53044e-06 30.0006 	-9.18717e-06 	-2.53044e-06 30.0006 	-9.18716e-06 	-2.53044e-06 30.0006 	-9.18715e-06 	-2.53043e-06 30.0003 	-8.2678e-08 	-6.20127e-06 30.0006 	-9.09711e-06 	-2.48119e-06 30.0006 	-9.0971e-06 	-2.48119e-06 30.0006 	-9.09709e-06 	-2.48119e-06 30.0006 	-9.09708e-06 	-2.48119e-06 30.0003 	-8.44277e-08 	-6.05424e-06 30.0006 	-9.00464e-06 	-2.41362e-06 30.0006 	-9.00464e-06 	-2.41362e-06 30.0006 	-9.00463e-06 	-2.41362e-06 30.0006 	-9.00462e-06 	-2.41362e-06 30.0003 	-8.61755e-08 	-5.88783e-06 30.0006 	-8.90849e-06 	-2.32974e-06 30.0006 	-8.90848e-06 	-2.32973e-06 30.0006 	-8.90847e-06 	-2.32973e-06 30.0006 	-8.90846e-06 	-2.32973e-06 30.0003 	-3.9377e-06 	-5.36347e-06 30.0006 	-8.80843e-06 	-2.23276e-06 30.0006 	-8.80843e-06 	-2.23275e-06 30.0006 	-8.80842e-06 	-2.23275e-06 30.0006 	-8.80841e-06 	-2.23275e-06 30.0003 	-3.86391e-06 	-5.16476e-06 30.0006 	-8.70415e-06 	-2.12415e-06 30.0006 	-8.70415e-06 	-2.12414e-06 30.0006 	-8.70414e-06 	-2.12414e-06 30.0006 	-8.70413e-06 	-2.12414e-06 30.0003 	-9.1425e-08 	-5.28458e-06 30.0006 	-8.59595e-06 	-2.00509e-06 30.0006 	-8.59594e-06 	-2.00508e-06 30.0006 	-8.59594e-06 	-2.00508e-06 30.0006 	-8.59593e-06 	-2.00508e-06 30.0003 	-3.70428e-06 	-4.71939e-06 30.0007 	-8.48456e-06 	-1.87669e-06 30.0007 	-8.48455e-06 	-1.87669e-06 30.0007 	-8.48454e-06 	-1.87669e-06 30.0007 	-8.48454e-06 	-1.87669e-06 30.0003 	-3.61917e-06 	-4.47431e-06 30.0007 	-8.37119e-06 	-1.73884e-06 30.0007 	-8.37119e-06 	-1.73884e-06 30.0007 	-8.37118e-06 	-1.73884e-06 30.0007 	-8.37118e-06 	-1.73884e-06 30.0004 	-9.66169e-08 	-4.54319e-06 30.0007 	-8.25958e-06 	-1.59804e-06 30.0007 	-8.25957e-06 	-1.59804e-06 30.0007 	-8.25957e-06 	-1.59804e-06 30.0007 	-8.25956e-06 	-1.59804e-06 30.0004 	-9.83339e-08 	-4.27124e-06 30.0007 	-8.14755e-06 	-1.46324e-06 30.0007 	-8.14754e-06 	-1.46324e-06 30.0007 	-8.14754e-06 	-1.46324e-06 30.0007 	-8.14754e-06 	-1.46324e-06 30.0004 	-1.00047e-07 	-3.98926e-06 30.0007 	-8.01944e-06 	-1.32073e-06 30.0007 	-8.01944e-06 	-1.32072e-06 30.0007 	-8.01944e-06 	-1.32072e-06 30.0007 	-8.01943e-06 	-1.32072e-06 30.0004 	-3.25073e-06 	-3.37795e-06 30.0007 	-7.88062e-06 	-1.16801e-06 30.0007 	-7.88061e-06 	-1.16801e-06 30.0007 	-7.88061e-06 	-1.16801e-06 30.0007 	-7.88061e-06 	-1.16801e-06 30.0004 	-1.03436e-07 	-3.40288e-06 30.0007 	-7.74465e-06 	-1.00788e-06 30.0007 	-7.74465e-06 	-1.00788e-06 30.0007 	-7.74465e-06 	-1.00788e-06 30.0007 	-7.74464e-06 	-1.00788e-06 30.0004 	-1.05124e-07 	-3.10327e-06 30.0007 	-7.61049e-06 	-8.41863e-07 30.0007 	-7.61048e-06 	-8.41863e-07 30.0007 	-7.61048e-06 	-8.41863e-07 30.0007 	-7.61048e-06 	-8.41862e-07 30.0004 	-2.9315e-06 	-2.48788e-06 30.0007 	-7.47468e-06 	-6.70209e-07 30.0007 	-7.47468e-06 	-6.70209e-07 30.0007 	-7.47468e-06 	-6.70209e-07 30.0007 	-7.47467e-06 	-6.70208e-07 30.0004 	-2.825e-06 	-2.18313e-06 30.0007 	-7.34251e-06 	-4.97054e-07 30.0007 	-7.3425e-06 	-4.97054e-07 30.0007 	-7.3425e-06 	-4.97053e-07 30.0007 	-7.3425e-06 	-4.97053e-07 30.0004 	-1.1015e-07 	-2.1711e-06 30.0007 	-7.21467e-06 	-3.17326e-07 30.0007 	-7.21467e-06 	-3.17326e-07 30.0007 	-7.21467e-06 	-3.17326e-07 30.0007 	-7.21467e-06 	-3.17326e-07 30.0004 	-1.11807e-07 	-1.85336e-06 30.0007 	-7.0979e-06 	-1.38222e-07 30.0007 	-7.0979e-06 	-1.38222e-07 30.0007 	-7.0979e-06 	-1.38222e-07 30.0007 	-7.0979e-06 	-1.38222e-07 30.0004 	-1.13448e-07 	-1.54902e-06 30.0007 	-6.98454e-06 	4.08449e-08 30.0007 	-6.98454e-06 	4.08449e-08 30.0007 	-6.98454e-06 	4.08449e-08 30.0007 	-6.98454e-06 	4.08449e-08 30.0004 	-2.43848e-06 	-9.58508e-07 30.0007 	-6.87091e-06 	2.1466e-07 30.0007 	-6.87091e-06 	2.1466e-07 30.0007 	-6.87091e-06 	2.1466e-07 30.0007 	-6.87091e-06 	2.1466e-07 30.0004 	-2.34685e-06 	-6.82307e-07 30.0007 	-6.7527e-06 	3.90711e-07 30.0007 	-6.75271e-06 	3.90711e-07 30.0007 	-6.75271e-06 	3.90711e-07 30.0007 	-6.75271e-06 	3.90711e-07 30.0004 	-1.18354e-07 	-7.0977e-07 30.0007 	-6.64216e-06 	5.64364e-07 30.0007 	-6.64216e-06 	5.64364e-07 30.0007 	-6.64217e-06 	5.64364e-07 30.0007 	-6.64217e-06 	5.64364e-07 30.0004 	-2.16647e-06 	-1.45448e-07 30.0007 	-6.53515e-06 	7.27391e-07 30.0007 	-6.53515e-06 	7.27391e-07 30.0007 	-6.53516e-06 	7.27392e-07 30.0007 	-6.53516e-06 	7.27392e-07 30.0004 	-2.08078e-06 	1.13829e-07 30.0007 	-6.42982e-06 	8.78831e-07 30.0007 	-6.42982e-06 	8.78831e-07 30.0007 	-6.42982e-06 	8.78832e-07 30.0007 	-6.42982e-06 	8.78832e-07 30.0004 	-1.23221e-07 	7.05767e-08 30.0007 	-6.3222e-06 	1.01778e-06 30.0007 	-6.32221e-06 	1.01778e-06 30.0007 	-6.32221e-06 	1.01778e-06 30.0007 	-6.32221e-06 	1.01778e-06 30.0004 	-1.24799e-07 	3.15805e-07 30.0007 	-6.21581e-06 	1.14061e-06 30.0007 	-6.21581e-06 	1.14061e-06 30.0007 	-6.21582e-06 	1.14061e-06 30.0007 	-6.21582e-06 	1.14061e-06 30.0004 	-1.26375e-07 	5.45522e-07 30.0007 	-6.11453e-06 	1.25631e-06 30.0007 	-6.11453e-06 	1.25631e-06 30.0007 	-6.11453e-06 	1.25631e-06 30.0007 	-6.11454e-06 	1.25631e-06 30.0004 	-1.76393e-06 	1.03207e-06 30.0007 	-6.02178e-06 	1.37127e-06 30.0007 	-6.02178e-06 	1.37127e-06 30.0007 	-6.02179e-06 	1.37127e-06 30.0007 	-6.02179e-06 	1.37127e-06 30.0004 	-1.29463e-07 	9.36939e-07 30.0007 	-5.9421e-06 	1.48849e-06 30.0007 	-5.94211e-06 	1.48849e-06 30.0007 	-5.94211e-06 	1.4885e-06 30.0007 	-5.94211e-06 	1.4885e-06 30.0004 	-1.30958e-07 	1.10456e-06 30.0007 	-5.87087e-06 	1.59288e-06 30.0007 	-5.87088e-06 	1.59288e-06 30.0007 	-5.87088e-06 	1.59288e-06 30.0007 	-5.87088e-06 	1.59289e-06 30.0004 	-1.59103e-06 	1.53876e-06 30.0007 	-5.80125e-06 	1.67931e-06 30.0007 	-5.80125e-06 	1.67931e-06 30.0007 	-5.80125e-06 	1.67931e-06 30.0007 	-5.80126e-06 	1.67931e-06 30.0003 	-1.54382e-06 	1.67821e-06 30.0007 	-5.73315e-06 	1.7501e-06 30.0007 	-5.73316e-06 	1.7501e-06 30.0007 	-5.73316e-06 	1.75011e-06 30.0007 	-5.73317e-06 	1.75011e-06 30.0003 	-1.3565e-07 	1.52473e-06 30.0006 	-5.66801e-06 	1.8098e-06 30.0006 	-5.66801e-06 	1.8098e-06 30.0006 	-5.66802e-06 	1.80981e-06 30.0006 	-5.66802e-06 	1.80981e-06 30.0003 	-1.37201e-07 	1.63227e-06 30.0006 	-5.60792e-06 	1.85994e-06 30.0006 	-5.60792e-06 	1.85994e-06 30.0006 	-5.60793e-06 	1.85994e-06 30.0006 	-5.60793e-06 	1.85994e-06 30.0003 	-1.38665e-07 	1.724e-06 30.0006 	-5.55361e-06 	1.90043e-06 30.0006 	-5.55362e-06 	1.90043e-06 30.0006 	-5.55362e-06 	1.90043e-06 30.0006 	-5.55362e-06 	1.90043e-06 30.0003 	-1.38848e-06 	2.07103e-06 30.0006 	-5.50477e-06 	1.93109e-06 30.0006 	-5.50477e-06 	1.93109e-06 30.0006 	-5.50477e-06 	1.9311e-06 30.0006 	-5.50478e-06 	1.9311e-06 30.0003 	-1.36145e-06 	2.13097e-06 30.0006 	-5.46102e-06 	1.95183e-06 30.0006 	-5.46103e-06 	1.95183e-06 30.0006 	-5.46103e-06 	1.95184e-06 30.0006 	-5.46104e-06 	1.95184e-06 30.0003 	-1.42699e-07 	1.90826e-06 30.0006 	-5.42223e-06 	1.96278e-06 30.0006 	-5.42224e-06 	1.96278e-06 30.0006 	-5.42224e-06 	1.96278e-06 30.0006 	-5.42225e-06 	1.96278e-06 30.0003 	-1.32307e-06 	2.20766e-06 30.0006 	-5.38826e-06 	1.96431e-06 30.0006 	-5.38827e-06 	1.96431e-06 30.0006 	-5.38827e-06 	1.96431e-06 30.0006 	-5.38827e-06 	1.96432e-06 30.0003 	-1.31129e-06 	2.22555e-06 30.0006 	-5.35908e-06 	1.95691e-06 30.0006 	-5.35908e-06 	1.95691e-06 30.0006 	-5.35909e-06 	1.95691e-06 30.0006 	-5.35909e-06 	1.95692e-06 30.0003 	-1.46578e-07 	1.96617e-06 30.0005 	-5.3346e-06 	1.94112e-06 30.0005 	-5.3346e-06 	1.94112e-06 30.0005 	-5.33461e-06 	1.94112e-06 30.0005 	-5.33461e-06 	1.94112e-06 30.0003 	-1.47835e-07 	1.96057e-06 30.0005 	-5.3146e-06 	1.91793e-06 30.0005 	-5.3146e-06 	1.91793e-06 30.0005 	-5.31461e-06 	1.91793e-06 30.0005 	-5.31461e-06 	1.91793e-06 30.0003 	-1.49049e-07 	1.94424e-06 30.0005 	-5.29901e-06 	1.888e-06 30.0005 	-5.29901e-06 	1.888e-06 30.0005 	-5.29901e-06 	1.888e-06 30.0005 	-5.29902e-06 	1.888e-06 30.0003 	-1.30874e-06 	2.17901e-06 30.0005 	-5.28766e-06 	1.8519e-06 30.0005 	-5.28767e-06 	1.8519e-06 30.0005 	-5.28767e-06 	1.8519e-06 30.0005 	-5.28767e-06 	1.8519e-06 30.0003 	-1.514e-07 	1.8823e-06 30.0005 	-5.28039e-06 	1.81008e-06 30.0005 	-5.28039e-06 	1.81008e-06 30.0005 	-5.28039e-06 	1.81008e-06 30.0005 	-5.2804e-06 	1.81008e-06 30.0003 	-1.52522e-07 	1.83818e-06 30.0005 	-5.27694e-06 	1.76316e-06 30.0005 	-5.27694e-06 	1.76316e-06 30.0005 	-5.27695e-06 	1.76316e-06 30.0005 	-5.27695e-06 	1.76316e-06 30.0003 	-1.34796e-06 	2.04409e-06 30.0005 	-5.27711e-06 	1.71162e-06 30.0005 	-5.27711e-06 	1.71162e-06 30.0005 	-5.27712e-06 	1.71162e-06 30.0005 	-5.27712e-06 	1.71162e-06 30.0003 	-1.36803e-06 	1.98425e-06 30.0005 	-5.28068e-06 	1.65599e-06 30.0005 	-5.28069e-06 	1.65599e-06 30.0005 	-5.28069e-06 	1.65599e-06 30.0005 	-5.28069e-06 	1.65599e-06 30.0002 	-1.55739e-07 	1.66282e-06 30.0005 	-5.28748e-06 	1.59668e-06 30.0005 	-5.28749e-06 	1.59668e-06 30.0005 	-5.28749e-06 	1.59668e-06 30.0005 	-5.28749e-06 	1.59668e-06 30.0002 	-1.56794e-07 	1.59257e-06 30.0004 	-5.29744e-06 	1.53416e-06 30.0004 	-5.29744e-06 	1.53416e-06 30.0004 	-5.29744e-06 	1.53416e-06 30.0004 	-5.29744e-06 	1.53416e-06 30.0002 	-1.57869e-07 	1.51771e-06 30.0004 	-5.31038e-06 	1.4689e-06 30.0004 	-5.31038e-06 	1.4689e-06 30.0004 	-5.31039e-06 	1.4689e-06 30.0004 	-5.31039e-06 	1.4689e-06 30.0002 	-1.47969e-06 	1.69064e-06 30.0004 	-5.32593e-06 	1.40145e-06 30.0004 	-5.32593e-06 	1.40145e-06 30.0004 	-5.32593e-06 	1.40145e-06 30.0004 	-5.32593e-06 	1.40145e-06 30.0002 	-1.51422e-06 	1.60715e-06 30.0004 	-5.34383e-06 	1.3322e-06 30.0004 	-5.34384e-06 	1.3322e-06 30.0004 	-5.34384e-06 	1.3322e-06 30.0004 	-5.34384e-06 	1.3322e-06 30.0002 	-1.61134e-07 	1.27188e-06 30.0004 	-5.36386e-06 	1.26149e-06 30.0004 	-5.36386e-06 	1.26149e-06 30.0004 	-5.36387e-06 	1.26149e-06 30.0004 	-5.36387e-06 	1.26149e-06 30.0002 	-1.58955e-06 	1.43252e-06 30.0004 	-5.38568e-06 	1.18982e-06 30.0004 	-5.38568e-06 	1.18982e-06 30.0004 	-5.38568e-06 	1.18982e-06 30.0004 	-5.38568e-06 	1.18982e-06 30.0002 	-1.63004e-06 	1.34244e-06 30.0004 	-5.4093e-06 	1.11749e-06 30.0004 	-5.40931e-06 	1.11749e-06 30.0004 	-5.40931e-06 	1.11749e-06 30.0004 	-5.40931e-06 	1.11749e-06 30.0002 	-1.64155e-07 	1.00611e-06 30.0004 	-5.43443e-06 	1.04482e-06 30.0004 	-5.43443e-06 	1.04482e-06 30.0004 	-5.43443e-06 	1.04482e-06 30.0004 	-5.43443e-06 	1.04482e-06 30.0002 	-1.65101e-07 	9.15635e-07 30.0004 	-5.46009e-06 	9.72277e-07 30.0004 	-5.46009e-06 	9.72278e-07 30.0004 	-5.4601e-06 	9.72278e-07 30.0004 	-5.4601e-06 	9.72279e-07 30.0002 	-1.66006e-07 	8.25014e-07 30.0004 	-5.48615e-06 	8.995e-07 30.0004 	-5.48615e-06 	8.995e-07 30.0004 	-5.48616e-06 	8.995e-07 30.0004 	-5.48616e-06 	8.99501e-07 30.0002 	-1.80694e-06 	9.75446e-07 30.0004 	-5.51295e-06 	8.25967e-07 30.0004 	-5.51295e-06 	8.25967e-07 30.0004 	-5.51295e-06 	8.25967e-07 30.0004 	-5.51295e-06 	8.25968e-07 30.0002 	-1.67719e-07 	6.43648e-07 30.0003 	-5.5427e-06 	7.52007e-07 30.0003 	-5.5427e-06 	7.52007e-07 30.0003 	-5.5427e-06 	7.52007e-07 30.0003 	-5.5427e-06 	7.52007e-07 30.0002 	-1.68543e-07 	5.52654e-07 30.0003 	-5.57718e-06 	6.77462e-07 30.0003 	-5.57719e-06 	6.77463e-07 30.0003 	-5.57719e-06 	6.77463e-07 30.0003 	-5.57719e-06 	6.77463e-07 30.0002 	-1.95532e-06 	7.0134e-07 30.0003 	-5.61405e-06 	6.04398e-07 30.0003 	-5.61405e-06 	6.04398e-07 30.0003 	-5.61405e-06 	6.04398e-07 30.0003 	-5.61405e-06 	6.04398e-07 30.0002 	-2.00751e-06 	6.1171e-07 30.0003 	-5.65013e-06 	5.3468e-07 30.0003 	-5.65014e-06 	5.3468e-07 30.0003 	-5.65014e-06 	5.3468e-07 30.0003 	-5.65014e-06 	5.3468e-07 30.0002 	-1.71034e-07 	2.80961e-07 30.0003 	-5.68125e-06 	4.67654e-07 30.0003 	-5.68125e-06 	4.67654e-07 30.0003 	-5.68125e-06 	4.67654e-07 30.0003 	-5.68125e-06 	4.67654e-07 30.0002 	-1.71863e-07 	1.97346e-07 30.0003 	-5.70967e-06 	4.03209e-07 30.0003 	-5.70967e-06 	4.03209e-07 30.0003 	-5.70967e-06 	4.03209e-07 30.0003 	-5.70967e-06 	4.03209e-07 30.0002 	-1.72662e-07 	1.16415e-07 30.0003 	-5.73784e-06 	3.39246e-07 30.0003 	-5.73784e-06 	3.39246e-07 30.0003 	-5.73785e-06 	3.39246e-07 30.0003 	-5.73785e-06 	3.39246e-07 30.0002 	-2.20078e-06 	2.74111e-07 30.0003 	-5.76582e-06 	2.7528e-07 30.0003 	-5.76582e-06 	2.7528e-07 30.0003 	-5.76582e-06 	2.7528e-07 30.0003 	-5.76582e-06 	2.7528e-07 30.0002 	-2.24771e-06 	1.96368e-07 30.0003 	-5.79257e-06 	2.10792e-07 30.0003 	-5.79257e-06 	2.10792e-07 30.0003 	-5.79257e-06 	2.10792e-07 30.0003 	-5.79257e-06 	2.10792e-07 30.0002 	-1.74836e-07 	-1.09133e-07 30.0003 	-5.82058e-06 	1.48781e-07 30.0003 	-5.82058e-06 	1.48781e-07 30.0003 	-5.82058e-06 	1.48781e-07 30.0003 	-5.82058e-06 	1.48781e-07 30.0002 	-2.34149e-06 	4.46827e-08 30.0003 	-5.84984e-06 	8.99857e-08 30.0003 	-5.84984e-06 	8.99857e-08 30.0003 	-5.84984e-06 	8.99857e-08 30.0003 	-5.84984e-06 	8.99857e-08 30.0002 	-2.3888e-06 	-2.90914e-08 30.0003 	-5.88027e-06 	3.48134e-08 30.0003 	-5.88027e-06 	3.48134e-08 30.0003 	-5.88027e-06 	3.48134e-08 30.0003 	-5.88027e-06 	3.48134e-08 30.0002 	-1.76846e-07 	-3.30762e-07 30.0003 	-5.91201e-06 	-1.70743e-08 30.0003 	-5.91201e-06 	-1.70743e-08 30.0003 	-5.91201e-06 	-1.70743e-08 30.0003 	-5.91201e-06 	-1.70743e-08 30.0002 	-1.77476e-07 	-4.01799e-07 30.0003 	-5.94514e-06 	-6.90543e-08 30.0003 	-5.94514e-06 	-6.90543e-08 30.0003 	-5.94514e-06 	-6.90543e-08 30.0003 	-5.94514e-06 	-6.90543e-08 30.0002 	-1.78086e-07 	-4.67072e-07 30.0003 	-5.97711e-06 	-1.23315e-07 30.0003 	-5.97711e-06 	-1.23315e-07 30.0003 	-5.97711e-06 	-1.23315e-07 30.0003 	-5.97711e-06 	-1.23315e-07 30.0002 	-2.58034e-06 	-3.01368e-07 30.0003 	-6.0049e-06 	-1.77959e-07 30.0003 	-6.0049e-06 	-1.77959e-07 30.0003 	-6.0049e-06 	-1.77959e-07 30.0003 	-6.0049e-06 	-1.77959e-07 30.0002 	-1.79281e-07 	-5.84885e-07 30.0003 	-6.02904e-06 	-2.29217e-07 30.0003 	-6.02904e-06 	-2.29217e-07 30.0003 	-6.02904e-06 	-2.29217e-07 30.0003 	-6.02903e-06 	-2.29217e-07 30.0002 	-1.7988e-07 	-6.42148e-07 30.0003 	-6.05228e-06 	-2.76181e-07 30.0003 	-6.05228e-06 	-2.76181e-07 30.0003 	-6.05228e-06 	-2.76181e-07 30.0003 	-6.05228e-06 	-2.76181e-07 30.0002 	-2.70843e-06 	-4.7897e-07 30.0003 	-6.07615e-06 	-3.19659e-07 30.0003 	-6.07615e-06 	-3.19659e-07 30.0003 	-6.07615e-06 	-3.19659e-07 30.0003 	-6.07615e-06 	-3.19659e-07 30.0002 	-2.74947e-06 	-5.34014e-07 30.0003 	-6.1004e-06 	-3.61195e-07 30.0003 	-6.1004e-06 	-3.61195e-07 30.0003 	-6.1004e-06 	-3.61195e-07 30.0003 	-6.1004e-06 	-3.61195e-07 30.0002 	-1.81639e-07 	-8.03788e-07 30.0003 	-6.12445e-06 	-4.01393e-07 30.0003 	-6.12445e-06 	-4.01393e-07 30.0003 	-6.12445e-06 	-4.01393e-07 30.0003 	-6.12445e-06 	-4.01393e-07 30.0001 	-1.82195e-07 	-8.53108e-07 30.0003 	-6.14786e-06 	-4.40387e-07 30.0003 	-6.14786e-06 	-4.40387e-07 30.0003 	-6.14786e-06 	-4.40387e-07 30.0003 	-6.14786e-06 	-4.40387e-07 30.0001 	-1.82737e-07 	-9.00318e-07 30.0003 	-6.17053e-06 	-4.78006e-07 30.0003 	-6.17053e-06 	-4.78006e-07 30.0003 	-6.17053e-06 	-4.78005e-07 30.0003 	-6.17053e-06 	-4.78005e-07 30.0001 	-2.90899e-06 	-7.31445e-07 30.0003 	-6.19234e-06 	-5.14221e-07 30.0003 	-6.19233e-06 	-5.14221e-07 30.0003 	-6.19233e-06 	-5.14221e-07 30.0003 	-6.19233e-06 	-5.14221e-07 30.0001 	-2.94688e-06 	-7.75572e-07 30.0003 	-6.21328e-06 	-5.48844e-07 30.0003 	-6.21328e-06 	-5.48844e-07 30.0003 	-6.21328e-06 	-5.48844e-07 30.0003 	-6.21328e-06 	-5.48844e-07 30.0001 	-1.8429e-07 	-1.02953e-06 30.0003 	-6.23341e-06 	-5.8206e-07 30.0003 	-6.2334e-06 	-5.8206e-07 30.0003 	-6.2334e-06 	-5.8206e-07 30.0003 	-6.2334e-06 	-5.82059e-07 30.0001 	-3.0199e-06 	-8.57459e-07 30.0003 	-6.25269e-06 	-6.139e-07 30.0003 	-6.25269e-06 	-6.139e-07 30.0003 	-6.25269e-06 	-6.139e-07 30.0003 	-6.25269e-06 	-6.13899e-07 30.0001 	-3.055e-06 	-8.95467e-07 30.0003 	-6.2712e-06 	-6.44426e-07 30.0003 	-6.2712e-06 	-6.44426e-07 30.0003 	-6.2712e-06 	-6.44426e-07 30.0003 	-6.27119e-06 	-6.44425e-07 30.0001 	-1.85751e-07 	-1.14085e-06 30.0003 	-6.28897e-06 	-6.73624e-07 30.0003 	-6.28896e-06 	-6.73624e-07 30.0003 	-6.28896e-06 	-6.73623e-07 30.0003 	-6.28896e-06 	-6.73623e-07 30.0001 	-1.86217e-07 	-1.1746e-06 30.0003 	-6.306e-06 	-7.0144e-07 30.0003 	-6.306e-06 	-7.01439e-07 30.0003 	-6.306e-06 	-7.01439e-07 30.0003 	-6.306e-06 	-7.01439e-07 30.0001 	-1.86673e-07 	-1.20669e-06 30.0003 	-6.3221e-06 	-7.27868e-07 30.0003 	-6.32209e-06 	-7.27867e-07 30.0003 	-6.32209e-06 	-7.27867e-07 30.0003 	-6.32209e-06 	-7.27867e-07 30.0001 	-3.18649e-06 	-1.03099e-06 30.0003 	-6.33737e-06 	-7.52979e-07 30.0003 	-6.33737e-06 	-7.52979e-07 30.0003 	-6.33737e-06 	-7.52978e-07 30.0003 	-6.33737e-06 	-7.52978e-07 30.0001 	-1.87551e-07 	-1.26597e-06 30.0003 	-6.35191e-06 	-7.76947e-07 30.0003 	-6.3519e-06 	-7.76947e-07 30.0003 	-6.3519e-06 	-7.76946e-07 30.0003 	-6.3519e-06 	-7.76946e-07 30.0001 	-1.87973e-07 	-1.29333e-06 30.0003 	-6.36573e-06 	-7.99816e-07 30.0003 	-6.36573e-06 	-7.99816e-07 30.0003 	-6.36572e-06 	-7.99816e-07 30.0003 	-6.36572e-06 	-7.99816e-07 30.0001 	-3.27591e-06 	-1.11603e-06 30.0003 	-6.37882e-06 	-8.21543e-07 30.0003 	-6.37882e-06 	-8.21543e-07 30.0003 	-6.37882e-06 	-8.21542e-07 30.0003 	-6.37882e-06 	-8.21542e-07 30.0001 	-3.30403e-06 	-1.14151e-06 30.0003 	-6.39115e-06 	-8.4198e-07 30.0003 	-6.39115e-06 	-8.41979e-07 30.0003 	-6.39115e-06 	-8.41979e-07 30.0003 	-6.39115e-06 	-8.41979e-07 30.0001 	-1.89194e-07 	-1.36687e-06 30.0003 	-6.4028e-06 	-8.61371e-07 30.0003 	-6.4028e-06 	-8.61371e-07 30.0003 	-6.40279e-06 	-8.61371e-07 30.0003 	-6.40279e-06 	-8.6137e-07 30.0001 	-1.89585e-07 	-1.38874e-06 30.0003 	-6.41375e-06 	-8.79808e-07 30.0003 	-6.41375e-06 	-8.79808e-07 30.0003 	-6.41375e-06 	-8.79808e-07 30.0003 	-6.41375e-06 	-8.79807e-07 30.0001 	-1.89969e-07 	-1.4094e-06 30.0003 	-6.42401e-06 	-8.9729e-07 30.0003 	-6.42401e-06 	-8.9729e-07 30.0003 	-6.424e-06 	-8.9729e-07 30.0003 	-6.424e-06 	-8.97289e-07 30.0001 	-3.40837e-06 	-1.23051e-06 30.0003 	-6.43359e-06 	-9.13875e-07 30.0003 	-6.43359e-06 	-9.13875e-07 30.0003 	-6.43359e-06 	-9.13875e-07 30.0003 	-6.43359e-06 	-9.13875e-07 30.0001 	-3.43251e-06 	-1.24984e-06 30.0003 	-6.44251e-06 	-9.29561e-07 30.0003 	-6.44251e-06 	-9.29561e-07 30.0003 	-6.44251e-06 	-9.2956e-07 30.0003 	-6.44251e-06 	-9.2956e-07 30.0001 	-1.91079e-07 	-1.46456e-06 30.0003 	-6.45081e-06 	-9.44413e-07 30.0003 	-6.45081e-06 	-9.44413e-07 30.0003 	-6.45081e-06 	-9.44413e-07 30.0003 	-6.45081e-06 	-9.44412e-07 30.0001 	-3.47861e-06 	-1.28533e-06 30.0003 	-6.4585e-06 	-9.58416e-07 30.0003 	-6.4585e-06 	-9.58416e-07 30.0003 	-6.4585e-06 	-9.58415e-07 30.0003 	-6.45849e-06 	-9.58415e-07 30.0001 	-3.50066e-06 	-1.30159e-06 30.0003 	-6.4656e-06 	-9.71709e-07 30.0003 	-6.4656e-06 	-9.71709e-07 30.0003 	-6.46559e-06 	-9.71708e-07 30.0003 	-6.46559e-06 	-9.71708e-07 30.0001 	-1.92133e-07 	-1