# vtk DataFile Version 2.0
track0
ASCII
DATASET POLYDATA
POINTS 15780 float
-1.001 -0.05 0.0011
-1.0008 -0.05 0.0011
-1.0006 -0.05 0.0011
-1.0004 -0.05 0.0011
-1.0002 -0.05 0.0011
-1 -0.05 0.0011
-0.9875 -0.05 0.0011
-0.975 -0.05 0.0011
-0.9625 -0.05 0.0011
-0.95 -0.05 0.0011
-0.9375 -0.05 0.00109999
-0.925 -0.05 0.00109999
-0.9125 -0.05 0.00109999
-0.9 -0.05 0.00109999
-0.8875 -0.05 0.00109999
-0.875 -0.05 0.00109999
-0.8625 -0.05 0.00109999
-0.85 -0.05 0.00109999
-0.8375 -0.05 0.00109998
-0.825 -0.0500001 0.00109998
-0.8125 -0.0500001 0.00109998
-0.8 -0.0500001 0.00109998
-0.7875 -0.0500001 0.00109998
-0.775 -0.0500001 0.00109998
-0.7625 -0.0500001 0.00109998
-0.75 -0.0500001 0.00109998
-0.7375 -0.0500001 0.00109997
-0.725 -0.0500001 0.00109997
-0.7125 -0.0500001 0.00109997
-0.7 -0.0500001 0.00109997
-0.6875 -0.0500001 0.00109997
-0.675 -0.0500001 0.00109997
-0.6625 -0.0500001 0.00109997
-0.65 -0.0500001 0.00109996
-0.6375 -0.0500001 0.00109996
-0.625 -0.0500001 0.00109996
-0.6125 -0.0500001 0.00109996
-0.6 -0.0500001 0.00109996
-0.5875 -0.0500001 0.00109996
-0.575 -0.0500001 0.00109996
-0.5625 -0.0500001 0.00109996
-0.55 -0.0500001 0.00109995
-0.5375 -0.0500001 0.00109995
-0.525 -0.0500001 0.00109995
-0.5125 -0.0500001 0.00109995
-0.5 -0.0500001 0.00109995
-0.4875 -0.0500001 0.00109995
-0.475 -0.0500001 0.00109995
-0.4625 -0.0500001 0.00109994
-0.45 -0.0500002 0.00109994
-0.4375 -0.0500002 0.00109994
-0.425 -0.0500002 0.00109994
-0.4125 -0.0500002 0.00109994
-0.4 -0.0500002 0.00109994
-0.3875 -0.0500002 0.00109994
-0.375 -0.0500002 0.00109994
-0.3625 -0.0500002 0.00109993
-0.35 -0.0500002 0.00109993
-0.3375 -0.0500002 0.00109993
-0.325 -0.0500002 0.00109993
-0.3125 -0.0500002 0.00109993
-0.3 -0.0500002 0.00109993
-0.2875 -0.0500002 0.00109993
-0.275 -0.0500002 0.00109993
-0.2625 -0.0500002 0.00109992
-0.25 -0.0500002 0.00109992
-0.2375 -0.0500002 0.00109992
-0.225 -0.0500002 0.00109992
-0.2125 -0.0500002 0.00109992
-0.2 -0.0500002 0.00109992
-0.1875 -0.0500002 0.00109992
-0.175 -0.0500002 0.00109992
-0.1625 -0.0500002 0.00109991
-0.15 -0.0500002 0.00109991
-0.1375 -0.0500002 0.00109991
-0.125 -0.0500002 0.00109991
-0.1125 -0.0500002 0.00109991
-0.1 -0.0500002 0.00109991
-0.0875 -0.0500002 0.00109991
-0.075 -0.0500002 0.00109991
-0.0625 -0.0500002 0.00109991
-0.05 -0.0500003 0.00109991
-0.0375 -0.0500003 0.0010999
-0.025 -0.0500003 0.0010999
-0.0125 -0.0500003 0.0010999
2.10607e-13 -0.0500003 0.0010999
0.0125 -0.0500003 0.0010999
0.025 -0.0500003 0.0010999
0.0375 -0.0500003 0.0010999
0.05 -0.0500003 0.0010999
0.0625 -0.0500003 0.0010999
0.075 -0.0500003 0.0010999
0.0875 -0.0500003 0.0010999
0.1 -0.0500003 0.00109989
0.1125 -0.0500003 0.00109989
0.125 -0.0500003 0.00109989
0.1375 -0.0500003 0.00109989
0.15 -0.0500003 0.00109989
0.1625 -0.0500003 0.00109989
0.175 -0.0500003 0.00109989
0.1875 -0.0500003 0.00109989
0.2 -0.0500003 0.00109989
0.2125 -0.0500003 0.00109989
0.225 -0.0500003 0.00109989
0.2375 -0.0500003 0.00109989
0.25 -0.0500003 0.00109989
0.2625 -0.0500003 0.00109988
0.275 -0.0500003 0.00109988
0.2875 -0.0500003 0.00109988
0.3 -0.0500003 0.00109988
0.3125 -0.0500003 0.00109988
0.325 -0.0500003 0.00109988
0.3375 -0.0500003 0.00109988
0.35 -0.0500003 0.00109988
0.3625 -0.0500003 0.00109988
0.375 -0.0500003 0.00109988
0.3875 -0.0500003 0.00109988
0.4 -0.0500004 0.00109988
0.4125 -0.0500004 0.00109988
0.425 -0.0500004 0.00109988
0.4375 -0.0500004 0.00109988
0.45 -0.0500004 0.00109988
0.4625 -0.0500004 0.00109988
0.475 -0.0500004 0.00109988
0.4875 -0.0500004 0.00109988
0.5 -0.0500004 0.00109988
0.5125 -0.0500004 0.00109988
0.525 -0.0500004 0.00109988
0.5375 -0.0500004 0.00109988
0.55 -0.0500004 0.00109988
0.5625 -0.0500004 0.00109988
0.575 -0.0500004 0.00109987
0.5875 -0.0500004 0.00109987
0.6 -0.0500004 0.00109987
0.6125 -0.0500004 0.00109987
0.625 -0.0500004 0.00109987
0.6375 -0.0500004 0.00109987
0.65 -0.0500004 0.00109987
0.6625 -0.0500004 0.00109987
0.675 -0.0500004 0.00109987
0.6875 -0.0500004 0.00109987
0.7 -0.0500004 0.00109987
0.7125 -0.0500004 0.00109987
0.725 -0.0500004 0.00109987
0.7375 -0.0500004 0.00109987
0.75 -0.0500004 0.00109987
0.7625 -0.0500004 0.00109987
0.775 -0.0500004 0.00109987
0.7875 -0.0500004 0.00109987
0.8 -0.0500004 0.00109987
0.8125 -0.0500004 0.00109987
0.825 -0.0500004 0.00109987
0.8375 -0.0500004 0.00109987
0.85 -0.0500004 0.00109987
0.8625 -0.0500004 0.00109987
0.875 -0.0500004 0.00109987
0.8875 -0.0500004 0.00109987
0.9 -0.0500004 0.00109987
0.9125 -0.0500005 0.00109988
0.925 -0.0500005 0.00109988
0.9375 -0.0500005 0.00109988
0.95 -0.0500005 0.00109988
0.9625 -0.0500005 0.00109988
0.975 -0.0500005 0.00109988
0.9875 -0.0500005 0.00109988
1 -0.0500005 0.00109988
1.0125 -0.0500005 0.00109988
1.025 -0.0500005 0.00109988
1.0375 -0.0500005 0.00109988
1.05 -0.0500005 0.00109988
1.0625 -0.0500005 0.00109988
1.075 -0.0500005 0.00109988
1.0875 -0.0500005 0.00109988
1.1 -0.0500005 0.00109988
1.1125 -0.0500005 0.00109988
1.125 -0.0500005 0.00109988
1.1375 -0.0500005 0.00109988
1.15 -0.0500005 0.00109988
1.1625 -0.0500005 0.00109988
1.175 -0.0500005 0.00109988
1.1875 -0.0500005 0.00109988
1.2 -0.0500005 0.00109988
1.2125 -0.0500005 0.00109988
1.225 -0.0500005 0.00109988
1.2375 -0.0500005 0.00109989
1.25 -0.0500005 0.00109989
1.2625 -0.0500005 0.00109989
1.275 -0.0500005 0.00109989
1.2875 -0.0500005 0.00109989
1.3 -0.0500005 0.00109989
1.3125 -0.0500005 0.00109989
1.325 -0.0500005 0.00109989
1.3375 -0.0500005 0.00109989
1.35 -0.0500005 0.00109989
1.3625 -0.0500005 0.00109989
1.375 -0.0500005 0.00109989
1.3875 -0.0500005 0.00109989
1.4 -0.0500005 0.00109989
1.4125 -0.0500005 0.00109989
1.425 -0.0500005 0.00109989
1.4375 -0.0500005 0.0010999
1.45 -0.0500005 0.0010999
1.4625 -0.0500005 0.0010999
1.475 -0.0500005 0.0010999
1.4875 -0.0500005 0.0010999
1.5 -0.0500006 0.0010999
1.5125 -0.0500006 0.0010999
1.525 -0.0500006 0.0010999
1.5375 -0.0500006 0.0010999
1.55 -0.0500006 0.0010999
1.5625 -0.0500006 0.0010999
1.575 -0.0500006 0.0010999
1.5875 -0.0500006 0.0010999
1.6 -0.0500006 0.0010999
1.6125 -0.0500006 0.00109991
1.625 -0.0500006 0.00109991
1.6375 -0.0500006 0.00109991
1.65 -0.0500006 0.00109991
1.6625 -0.0500006 0.00109991
1.675 -0.0500006 0.00109991
1.6875 -0.0500006 0.00109991
1.7 -0.0500006 0.00109991
1.7125 -0.0500006 0.00109991
1.725 -0.0500006 0.00109991
1.7375 -0.0500006 0.00109991
1.75 -0.0500006 0.00109991
1.7625 -0.0500006 0.00109992
1.775 -0.0500006 0.00109992
1.7875 -0.0500006 0.00109992
1.8 -0.0500006 0.00109992
1.8125 -0.0500006 0.00109992
1.825 -0.0500006 0.00109992
1.8375 -0.0500006 0.00109992
1.85 -0.0500006 0.00109992
1.8625 -0.0500006 0.00109992
1.875 -0.0500006 0.00109992
1.8875 -0.0500006 0.00109992
1.9 -0.0500006 0.00109992
1.9125 -0.0500006 0.00109993
1.925 -0.0500006 0.00109993
1.9375 -0.0500006 0.00109993
1.95 -0.0500006 0.00109993
1.9625 -0.0500006 0.00109993
1.975 -0.0500006 0.00109993
1.9875 -0.0500006 0.00109993
2 -0.0500006 0.00109993
2.0125 -0.0500006 0.00109993
2.025 -0.0500006 0.00109993
2.0375 -0.0500006 0.00109993
2.05 -0.0500006 0.00109993
2.0625 -0.0500006 0.00109993
2.075 -0.0500006 0.00109994
2.0875 -0.0500006 0.00109994
2.1 -0.0500006 0.00109994
2.1125 -0.0500006 0.00109994
2.125 -0.0500006 0.00109994
2.1375 -0.0500006 0.00109994
2.15 -0.0500006 0.00109994
2.1625 -0.0500006 0.00109994
2.175 -0.0500007 0.00109994
2.1875 -0.0500007 0.00109994
2.2 -0.0500007 0.00109994
2.2125 -0.0500007 0.00109994
2.225 -0.0500007 0.00109995
2.2375 -0.0500007 0.00109995
2.25 -0.0500007 0.00109995
2.2625 -0.0500007 0.00109995
2.275 -0.0500007 0.00109995
2.2875 -0.0500007 0.00109995
2.3 -0.0500007 0.00109995
2.3125 -0.0500007 0.00109995
2.325 -0.0500007 0.00109995
2.3375 -0.0500007 0.00109995
2.35 -0.0500007 0.00109995
2.3625 -0.0500007 0.00109995
2.375 -0.0500007 0.00109995
2.3875 -0.0500007 0.00109996
2.4 -0.0500007 0.00109996
2.4125 -0.0500007 0.00109996
2.425 -0.0500007 0.00109996
2.4375 -0.0500007 0.00109996
2.45 -0.0500007 0.00109996
2.4625 -0.0500007 0.00109996
2.475 -0.0500007 0.00109996
2.4875 -0.0500007 0.00109996
2.5 -0.0500007 0.00109996
2.5125 -0.0500007 0.00109996
2.525 -0.0500007 0.00109996
2.5375 -0.0500007 0.00109996
2.55 -0.0500007 0.00109996
2.5625 -0.0500007 0.00109997
2.575 -0.0500007 0.00109997
2.5875 -0.0500007 0.00109997
2.6 -0.0500007 0.00109997
2.6125 -0.0500007 0.00109997
2.625 -0.0500007 0.00109997
2.6375 -0.0500007 0.00109997
2.65 -0.0500007 0.00109997
2.6625 -0.0500007 0.00109997
2.675 -0.0500007 0.00109997
2.6875 -0.0500007 0.00109997
2.7 -0.0500007 0.00109997
2.7125 -0.0500007 0.00109997
2.725 -0.0500007 0.00109997
2.7375 -0.0500007 0.00109997
2.75 -0.0500007 0.00109997
2.7625 -0.0500007 0.00109998
2.775 -0.0500007 0.00109998
2.7875 -0.0500007 0.00109998
2.8 -0.0500007 0.00109998
2.8125 -0.0500007 0.00109998
2.825 -0.0500007 0.00109998
2.8375 -0.0500007 0.00109998
2.85 -0.0500007 0.00109998
2.8625 -0.0500008 0.00109998
2.875 -0.0500008 0.00109998
2.8875 -0.0500008 0.00109998
2.9 -0.0500008 0.00109998
2.9125 -0.0500008 0.00109998
2.925 -0.0500008 0.00109998
2.9375 -0.0500008 0.00109998
2.95 -0.0500008 0.00109998
2.9625 -0.0500008 0.00109998
2.975 -0.0500008 0.00109998
2.9875 -0.0500008 0.00109998
3 -0.0500008 0.00109998
3.0125 -0.0500008 0.00109999
3.025 -0.0500008 0.00109999
3.0375 -0.0500008 0.00109999
3.05 -0.0500008 0.00109999
3.0625 -0.0500008 0.00109999
3.075 -0.0500008 0.00109999
3.0875 -0.0500008 0.00109999
3.1 -0.0500008 0.00109999
3.1125 -0.0500008 0.00109999
3.125 -0.0500008 0.00109999
3.1375 -0.0500008 0.00109999
3.15 -0.0500008 0.00109999
3.1625 -0.0500008 0.00109999
3.175 -0.0500008 0.00109999
3.1875 -0.0500008 0.00109999
3.2 -0.0500008 0.00109999
3.2125 -0.0500008 0.00109999
3.225 -0.0500008 0.00109999
3.2375 -0.0500008 0.00109999
3.25 -0.0500008 0.00109999
3.2625 -0.0500008 0.00109999
3.275 -0.0500008 0.00109999
3.2875 -0.0500008 0.00109999
3.3 -0.0500008 0.00109999
3.3125 -0.0500008 0.00109999
3.325 -0.0500008 0.00109999
3.3375 -0.0500008 0.00109999
3.35 -0.0500008 0.0011
3.3625 -0.0500008 0.0011
[...]
POINT_DATA 15780
 FIELD attributes 1
U 3 15780 float
30.0002 	-7.01787e-06 	-6.30586e-06 30.0002 	-6.84338e-06 	-6.51453e-06 30.0002 	-6.6689e-06 	-6.7232e-06 30.0002 	-6.49441e-06 	-6.93186e-06 30.0002 	-6.31992e-06 	-7.14053e-06 30.0002 	-6.14543e-06 	-7.3492e-06 30.0004 	-1.23851e-05 	-1.26101e-06 30.0004 	-1.23851e-05 	-1.26101e-06 30.0004 	-1.23851e-05 	-1.26101e-06 30.0004 	-1.23851e-05 	-1.26101e-06 30.0002 	-7.0507e-08 	-6.84366e-06 30.0005 	-1.0709e-05 	-1.68707e-06 30.0005 	-1.0709e-05 	-1.68707e-06 30.0005 	-1.0709e-05 	-1.68707e-06 30.0005 	-1.0709e-05 	-1.68706e-06 30.0002 	-7.2184e-08 	-6.59607e-06 30.0005 	-9.95844e-06 	-2.08025e-06 30.0005 	-9.95843e-06 	-2.08024e-06 30.0005 	-9.95842e-06 	-2.08024e-06 30.0005 	-9.95842e-06 	-2.08024e-06 30.0003 	-4.59306e-06 	-6.24725e-06 30.0005 	-9.69168e-06 	-2.34897e-06 30.0005 	-9.69167e-06 	-2.34897e-06 30.0005 	-9.69166e-06 	-2.34897e-06 30.0005 	-9.69165e-06 	-2.34897e-06 30.0003 	-7.57742e-08 	-6.57615e-06 30.0005 	-9.52349e-06 	-2.49785e-06 30.0005 	-9.52348e-06 	-2.49784e-06 30.0005 	-9.52347e-06 	-2.49784e-06 30.0005 	-9.52346e-06 	-2.49784e-06 30.0003 	-7.75294e-08 	-6.52626e-06 30.0005 	-9.38713e-06 	-2.55609e-06 30.0005 	-9.38712e-06 	-2.55608e-06 30.0005 	-9.38711e-06 	-2.55608e-06 30.0005 	-9.3871e-06 	-2.55608e-06 30.0003 	-4.26687e-06 	-6.08528e-06 30.0005 	-9.27971e-06 	-2.55831e-06 30.0005 	-9.2797e-06 	-2.55831e-06 30.0005 	-9.27969e-06 	-2.55831e-06 30.0005 	-9.27968e-06 	-2.5583e-06 30.0003 	-4.19927e-06 	-5.97789e-06 30.0006 	-9.18751e-06 	-2.53045e-06 30.0006 	-9.1875e-06 	-2.53044e-06 30.0006 	-9.1875e-06 	-2.53044e-06 30.0006 	-9.18749e-06 	-2.53044e-06 30.0003 	-8.28311e-08 	-6.20127e-06 30.0006 	-9.09745e-06 	-2.4812e-06 30.0006 	-9.09744e-06 	-2.4812e-06 30.0006 	-9.09743e-06 	-2.48119e-06 30.0006 	-9.09742e-06 	-2.48119e-06 30.0003 	-8.45855e-08 	-6.05424e-06 30.0006 	-9.005e-06 	-2.41362e-06 30.0006 	-9.00499e-06 	-2.41362e-06 30.0006 	-9.00498e-06 	-2.41362e-06 30.0006 	-9.00498e-06 	-2.41362e-06 30.0003 	-8.63444e-08 	-5.88782e-06 30.0006 	-8.90886e-06 	-2.32974e-06 30.0006 	-8.90885e-06 	-2.32973e-06 30.0006 	-8.90885e-06 	-2.32973e-06 30.0006 	-8.90884e-06 	-2.32973e-06 30.0003 	-3.93786e-06 	-5.36347e-06 30.0006 	-8.80883e-06 	-2.23276e-06 30.0006 	-8.80882e-06 	-2.23275e-06 30.0006 	-8.80881e-06 	-2.23275e-06 30.0006 	-8.8088e-06 	-2.23275e-06 30.0003 	-3.86408e-06 	-5.16476e-06 30.0006 	-8.70454e-06 	-2.12415e-06 30.0006 	-8.70453e-06 	-2.12415e-06 30.0006 	-8.70453e-06 	-2.12415e-06 30.0006 	-8.70452e-06 	-2.12415e-06 30.0003 	-9.16169e-08 	-5.28458e-06 30.0006 	-8.59637e-06 	-2.00509e-06 30.0006 	-8.59636e-06 	-2.00508e-06 30.0006 	-8.59635e-06 	-2.00508e-06 30.0006 	-8.59635e-06 	-2.00508e-06 30.0003 	-3.70448e-06 	-4.7194e-06 30.0007 	-8.485e-06 	-1.87669e-06 30.0007 	-8.485e-06 	-1.87669e-06 30.0007 	-8.48499e-06 	-1.87668e-06 30.0007 	-8.48498e-06 	-1.87668e-06 30.0003 	-3.61939e-06 	-4.47431e-06 30.0007 	-8.37166e-06 	-1.73885e-06 30.0007 	-8.37166e-06 	-1.73885e-06 30.0007 	-8.37165e-06 	-1.73885e-06 30.0007 	-8.37165e-06 	-1.73885e-06 30.0004 	-9.6874e-08 	-4.5432e-06 30.0007 	-8.26012e-06 	-1.59804e-06 30.0007 	-8.26011e-06 	-1.59804e-06 30.0007 	-8.26011e-06 	-1.59804e-06 30.0007 	-8.2601e-06 	-1.59804e-06 30.0004 	-9.86276e-08 	-4.27125e-06 30.0007 	-8.14814e-06 	-1.46324e-06 30.0007 	-8.14813e-06 	-1.46324e-06 30.0007 	-8.14813e-06 	-1.46324e-06 30.0007 	-8.14812e-06 	-1.46324e-06 30.0004 	-1.00374e-07 	-3.98928e-06 30.0007 	-8.02008e-06 	-1.32073e-06 30.0007 	-8.02008e-06 	-1.32073e-06 30.0007 	-8.02007e-06 	-1.32073e-06 30.0007 	-8.02007e-06 	-1.32073e-06 30.0004 	-3.25108e-06 	-3.37796e-06 30.0007 	-7.8813e-06 	-1.16802e-06 30.0007 	-7.8813e-06 	-1.16801e-06 30.0007 	-7.8813e-06 	-1.16801e-06 30.0007 	-7.88129e-06 	-1.16801e-06 30.0004 	-1.03826e-07 	-3.4029e-06 30.0007 	-7.7454e-06 	-1.00789e-06 30.0007 	-7.74539e-06 	-1.00789e-06 30.0007 	-7.74539e-06 	-1.00789e-06 30.0007 	-7.74539e-06 	-1.00789e-06 30.0004 	-1.05554e-07 	-3.10329e-06 30.0007 	-7.61129e-06 	-8.41871e-07 30.0007 	-7.61128e-06 	-8.41871e-07 30.0007 	-7.61128e-06 	-8.41871e-07 30.0007 	-7.61128e-06 	-8.4187e-07 30.0004 	-2.93195e-06 	-2.4879e-06 30.0007 	-7.47553e-06 	-6.70219e-07 30.0007 	-7.47553e-06 	-6.70219e-07 30.0007 	-7.47553e-06 	-6.70219e-07 30.0007 	-7.47553e-06 	-6.70218e-07 30.0004 	-2.8255e-06 	-2.18314e-06 30.0007 	-7.34344e-06 	-4.97066e-07 30.0007 	-7.34343e-06 	-4.97066e-07 30.0007 	-7.34343e-06 	-4.97066e-07 30.0007 	-7.34343e-06 	-4.97066e-07 30.0004 	-1.10682e-07 	-2.17113e-06 30.0007 	-7.21566e-06 	-3.17338e-07 30.0007 	-7.21566e-06 	-3.17338e-07 30.0007 	-7.21566e-06 	-3.17338e-07 30.0007 	-7.21566e-06 	-3.17338e-07 30.0004 	-1.12373e-07 	-1.85339e-06 30.0007 	-7.09895e-06 	-1.38233e-07 30.0007 	-7.09895e-06 	-1.38233e-07 30.0007 	-7.09895e-06 	-1.38233e-07 30.0007 	-7.09895e-06 	-1.38233e-07 30.0004 	-1.14043e-07 	-1.54905e-06 30.0007 	-6.98564e-06 	4.08382e-08 30.0007 	-6.98564e-06 	4.08382e-08 30.0007 	-6.98564e-06 	4.08382e-08 30.0007 	-6.98564e-06 	4.08382e-08 30.0004 	-2.4391e-06 	-9.58524e-07 30.0007 	-6.87206e-06 	2.1465e-07 30.0007 	-6.87206e-06 	2.1465e-07 30.0007 	-6.87206e-06 	2.1465e-07 30.0007 	-6.87206e-06 	2.1465e-07 30.0004 	-2.34751e-06 	-6.82322e-07 30.0007 	-6.75396e-06 	3.90703e-07 30.0007 	-6.75396e-06 	3.90703e-07 30.0007 	-6.75396e-06 	3.90703e-07 30.0007 	-6.75396e-06 	3.90703e-07 30.0004 	-1.19063e-07 	-7.09799e-07 30.0007 	-6.64351e-06 	5.6436e-07 30.0007 	-6.64351e-06 	5.6436e-07 30.0007 	-6.64351e-06 	5.6436e-07 30.0007 	-6.64351e-06 	5.6436e-07 30.0004 	-2.16721e-06 	-1.45466e-07 30.0007 	-6.53654e-06 	7.27389e-07 30.0007 	-6.53654e-06 	7.27389e-07 30.0007 	-6.53654e-06 	7.2739e-07 30.0007 	-6.53654e-06 	7.2739e-07 30.0004 	-2.08154e-06 	1.13809e-07 30.0007 	-6.43125e-06 	8.78827e-07 30.0007 	-6.43125e-06 	8.78827e-07 30.0007 	-6.43125e-06 	8.78828e-07 30.0007 	-6.43126e-06 	8.78828e-07 30.0004 	-1.24016e-07 	7.05456e-08 30.0007 	-6.32372e-06 	1.01779e-06 30.0007 	-6.32372e-06 	1.01779e-06 30.0007 	-6.32372e-06 	1.01779e-06 30.0007 	-6.32373e-06 	1.01779e-06 30.0004 	-1.25617e-07 	3.15776e-07 30.0007 	-6.21737e-06 	1.14062e-06 30.0007 	-6.21737e-06 	1.14062e-06 30.0007 	-6.21737e-06 	1.14062e-06 30.0007 	-6.21737e-06 	1.14062e-06 30.0004 	-1.27206e-07 	5.45497e-07 30.0007 	-6.11611e-06 	1.25633e-06 30.0007 	-6.11611e-06 	1.25633e-06 30.0007 	-6.11611e-06 	1.25633e-06 30.0007 	-6.11612e-06 	1.25633e-06 30.0004 	-1.76475e-06 	1.03205e-06 30.0007 	-6.02338e-06 	1.37127e-06 30.0007 	-6.02339e-06 	1.37128e-06 30.0007 	-6.02339e-06 	1.37128e-06 30.0007 	-6.02339e-06 	1.37128e-06 30.0004 	-1.30313e-07 	9.36916e-07 30.0007 	-5.94372e-06 	1.4885e-06 30.0007 	-5.94372e-06 	1.4885e-06 30.0007 	-5.94373e-06 	1.48851e-06 30.0007 	-5.94373e-06 	1.48851e-06 30.0004 	-1.31816e-07 	1.10454e-06 30.0007 	-5.87251e-06 	1.59289e-06 30.0007 	-5.87251e-06 	1.59289e-06 30.0007 	-5.87252e-06 	1.5929e-06 30.0007 	-5.87252e-06 	1.5929e-06 30.0004 	-1.59187e-06 	1.53874e-06 30.0007 	-5.8029e-06 	1.67932e-06 30.0007 	-5.8029e-06 	1.67932e-06 30.0007 	-5.8029e-06 	1.67933e-06 30.0007 	-5.80291e-06 	1.67933e-06 30.0003 	-1.54465e-06 	1.67819e-06 30.0007 	-5.73484e-06 	1.75012e-06 30.0007 	-5.73485e-06 	1.75012e-06 30.0007 	-5.73485e-06 	1.75012e-06 30.0007 	-5.73486e-06 	1.75012e-06 30.0003 	-1.36508e-07 	1.5247e-06 30.0006 	-5.66969e-06 	1.80982e-06 30.0006 	-5.66969e-06 	1.80983e-06 30.0006 	-5.6697e-06 	1.80983e-06 30.0006 	-5.6697e-06 	1.80983e-06 30.0003 	-1.38049e-07 	1.63225e-06 30.0006 	-5.6096e-06 	1.85996e-06 30.0006 	-5.6096e-06 	1.85996e-06 30.0006 	-5.60961e-06 	1.85996e-06 30.0006 	-5.60961e-06 	1.85996e-06 30.0003 	-1.39504e-07 	1.72398e-06 30.0006 	-5.55528e-06 	1.90045e-06 30.0006 	-5.55528e-06 	1.90045e-06 30.0006 	-5.55529e-06 	1.90046e-06 30.0006 	-5.55529e-06 	1.90046e-06 30.0003 	-1.38928e-06 	2.07101e-06 30.0006 	-5.50642e-06 	1.93111e-06 30.0006 	-5.50642e-06 	1.93111e-06 30.0006 	-5.50643e-06 	1.93111e-06 30.0006 	-5.50643e-06 	1.93111e-06 30.0003 	-1.36223e-06 	2.13094e-06 30.0006 	-5.46265e-06 	1.95185e-06 30.0006 	-5.46266e-06 	1.95185e-06 30.0006 	-5.46266e-06 	1.95185e-06 30.0006 	-5.46267e-06 	1.95185e-06 30.0003 	-1.43483e-07 	1.90824e-06 30.0006 	-5.42383e-06 	1.9628e-06 30.0006 	-5.42383e-06 	1.9628e-06 30.0006 	-5.42384e-06 	1.9628e-06 30.0006 	-5.42384e-06 	1.9628e-06 30.0003 	-1.3238e-06 	2.20763e-06 30.0006 	-5.38983e-06 	1.96433e-06 30.0006 	-5.38984e-06 	1.96433e-06 30.0006 	-5.38984e-06 	1.96433e-06 30.0006 	-5.38985e-06 	1.96433e-06 30.0003 	-1.31201e-06 	2.22552e-06 30.0006 	-5.36062e-06 	1.95692e-06 30.0006 	-5.36062e-06 	1.95692e-06 30.0006 	-5.36062e-06 	1.95693e-06 30.0006 	-5.36063e-06 	1.95693e-06 30.0003 	-1.47285e-07 	1.96615e-06 30.0005 	-5.33607e-06 	1.94112e-06 30.0005 	-5.33607e-06 	1.94112e-06 30.0005 	-5.33608e-06 	1.94112e-06 30.0005 	-5.33608e-06 	1.94113e-06 30.0003 	-1.48506e-07 	1.96055e-06 30.0005 	-5.31604e-06 	1.91793e-06 30.0005 	-5.31604e-06 	1.91793e-06 30.0005 	-5.31605e-06 	1.91793e-06 30.0005 	-5.31605e-06 	1.91793e-06 30.0003 	-1.49702e-07 	1.94422e-06 30.0005 	-5.30041e-06 	1.888e-06 30.0005 	-5.30041e-06 	1.888e-06 30.0005 	-5.30042e-06 	1.888e-06 30.0005 	-5.30042e-06 	1.888e-06 30.0003 	-1.30938e-06 	2.17897e-06 30.0005 	-5.28903e-06 	1.8519e-06 30.0005 	-5.28903e-06 	1.8519e-06 30.0005 	-5.28903e-06 	1.8519e-06 30.0005 	-5.28904e-06 	1.8519e-06 30.0003 	-1.52013e-07 	1.88227e-06 30.0005 	-5.28171e-06 	1.81007e-06 30.0005 	-5.28171e-06 	1.81007e-06 30.0005 	-5.28171e-06 	1.81007e-06 30.0005 	-5.28172e-06 	1.81007e-06 30.0003 	-1.53116e-07 	1.83815e-06 30.0005 	-5.27824e-06 	1.76315e-06 30.0005 	-5.27824e-06 	1.76315e-06 30.0005 	-5.27824e-06 	1.76315e-06 30.0005 	-5.27825e-06 	1.76315e-06 30.0003 	-1.34856e-06 	2.04405e-06 30.0005 	-5.27838e-06 	1.71161e-06 30.0005 	-5.27838e-06 	1.71161e-06 30.0005 	-5.27838e-06 	1.71161e-06 30.0005 	-5.27839e-06 	1.71161e-06 30.0003 	-1.36861e-06 	1.98421e-06 30.0005 	-5.28191e-06 	1.65597e-06 30.0005 	-5.28192e-06 	1.65598e-06 30.0005 	-5.28192e-06 	1.65598e-06 30.0005 	-5.28192e-06 	1.65598e-06 30.0002 	-1.56289e-07 	1.66278e-06 30.0005 	-5.28868e-06 	1.59666e-06 30.0005 	-5.28868e-06 	1.59666e-06 30.0005 	-5.28869e-06 	1.59666e-06 30.0005 	-5.28869e-06 	1.59666e-06 30.0002 	-1.57333e-07 	1.59253e-06 30.0004 	-5.29861e-06 	1.53413e-06 30.0004 	-5.29861e-06 	1.53413e-06 30.0004 	-5.29862e-06 	1.53413e-06 30.0004 	-5.29862e-06 	1.53413e-06 30.0002 	-1.58401e-07 	1.51767e-06 30.0004 	-5.31153e-06 	1.46887e-06 30.0004 	-5.31153e-06 	1.46887e-06 30.0004 	-5.31154e-06 	1.46887e-06 30.0004 	-5.31154e-06 	1.46887e-06 30.0002 	-1.48025e-06 	1.6906e-06 30.0004 	-5.32705e-06 	1.40141e-06 30.0004 	-5.32705e-06 	1.40141e-06 30.0004 	-5.32706e-06 	1.40141e-06 30.0004 	-5.32706e-06 	1.40141e-06 30.0002 	-1.51477e-06 	1.60711e-06 30.0004 	-5.34493e-06 	1.33216e-06 30.0004 	-5.34493e-06 	1.33216e-06 30.0004 	-5.34493e-06 	1.33216e-06 30.0004 	-5.34493e-06 	1.33216e-06 30.0002 	-1.61631e-07 	1.27184e-06 30.0004 	-5.36494e-06 	1.26145e-06 30.0004 	-5.36494e-06 	1.26145e-06 30.0004 	-5.36494e-06 	1.26145e-06 30.0004 	-5.36494e-06 	1.26145e-06 30.0002 	-1.5901e-06 	1.43248e-06 30.0004 	-5.38674e-06 	1.18978e-06 30.0004 	-5.38674e-06 	1.18978e-06 30.0004 	-5.38674e-06 	1.18978e-06 30.0004 	-5.38675e-06 	1.18978e-06 30.0002 	-1.63059e-06 	1.3424e-06 30.0004 	-5.41034e-06 	1.11744e-06 30.0004 	-5.41035e-06 	1.11744e-06 30.0004 	-5.41035e-06 	1.11744e-06 30.0004 	-5.41035e-06 	1.11745e-06 30.0002 	-1.64647e-07 	1.00606e-06 30.0004 	-5.43548e-06 	1.04477e-06 30.0004 	-5.43548e-06 	1.04477e-06 30.0004 	-5.43548e-06 	1.04477e-06 30.0004 	-5.43549e-06 	1.04477e-06 30.0002 	-1.65599e-07 	9.15591e-07 30.0004 	-5.46112e-06 	9.72238e-07 30.0004 	-5.46112e-06 	9.72238e-07 30.0004 	-5.46112e-06 	9.72238e-07 30.0004 	-5.46112e-06 	9.72239e-07 30.0002 	-1.665e-07 	8.2497e-07 30.0004 	-5.48714e-06 	8.99461e-07 30.0004 	-5.48714e-06 	8.99462e-07 30.0004 	-5.48715e-06 	8.99462e-07 30.0004 	-5.48715e-06 	8.99462e-07 30.0002 	-1.80748e-06 	9.7541e-07 30.0004 	-5.51391e-06 	8.2593e-07 30.0004 	-5.51391e-06 	8.25931e-07 30.0004 	-5.51391e-06 	8.25931e-07 30.0004 	-5.51391e-06 	8.25931e-07 30.0002 	-1.68195e-07 	6.43605e-07 30.0003 	-5.54365e-06 	7.51971e-07 30.0003 	-5.54365e-06 	7.51972e-07 30.0003 	-5.54365e-06 	7.51972e-07 30.0003 	-5.54365e-06 	7.51972e-07 30.0002 	-1.69029e-07 	5.52611e-07 30.0003 	-5.57812e-06 	6.77429e-07 30.0003 	-5.57812e-06 	6.77429e-07 30.0003 	-5.57813e-06 	6.77429e-07 30.0003 	-5.57813e-06 	6.7743e-07 30.0002 	-1.95584e-06 	7.01307e-07 30.0003 	-5.61497e-06 	6.04362e-07 30.0003 	-5.61497e-06 	6.04362e-07 30.0003 	-5.61497e-06 	6.04362e-07 30.0003 	-5.61497e-06 	6.04362e-07 30.0002 	-2.00804e-06 	6.11678e-07 30.0003 	-5.65109e-06 	5.34653e-07 30.0003 	-5.65109e-06 	5.34653e-07 30.0003 	-5.65109e-06 	5.34653e-07 30.0003 	-5.65109e-06 	5.34653e-07 30.0002 	-1.71525e-07 	2.80919e-07 30.0003 	-5.6822e-06 	4.67634e-07 30.0003 	-5.6822e-06 	4.67634e-07 30.0003 	-5.6822e-06 	4.67634e-07 30.0003 	-5.6822e-06 	4.67634e-07 30.0002 	-1.72356e-07 	1.97307e-07 30.0003 	-5.71062e-06 	4.03193e-07 30.0003 	-5.71062e-06 	4.03193e-07 30.0003 	-5.71062e-06 	4.03193e-07 30.0003 	-5.71062e-06 	4.03193e-07 30.0002 	-1.73153e-07 	1.16378e-07 30.0003 	-5.73878e-06 	3.3923e-07 30.0003 	-5.73878e-06 	3.3923e-07 30.0003 	-5.73878e-06 	3.3923e-07 30.0003 	-5.73878e-06 	3.39231e-07 30.0002 	-2.20131e-06 	2.74085e-07 30.0003 	-5.76675e-06 	2.75263e-07 30.0003 	-5.76675e-06 	2.75263e-07 30.0003 	-5.76675e-06 	2.75263e-07 30.0003 	-5.76675e-06 	2.75263e-07 30.0002 	-2.24824e-06 	1.96345e-07 30.0003 	-5.79355e-06 	2.10787e-07 30.0003 	-5.79355e-06 	2.10787e-07 30.0003 	-5.79356e-06 	2.10787e-07 30.0003 	-5.79356e-06 	2.10787e-07 30.0002 	-1.75351e-07 	-1.09161e-07 30.0003 	-5.82161e-06 	1.48788e-07 30.0003 	-5.82161e-06 	1.48788e-07 30.0003 	-5.82161e-06 	1.48788e-07 30.0003 	-5.82161e-06 	1.48788e-07 30.0002 	-2.34204e-06 	4.46662e-08 30.0003 	-5.85086e-06 	8.99946e-08 30.0003 	-5.85086e-06 	8.99946e-08 30.0003 	-5.85086e-06 	8.99946e-08 30.0003 	-5.85086e-06 	8.99946e-08 30.0002 	-2.38935e-06 	-2.91076e-08 30.0003 	-5.88129e-06 	3.48245e-08 30.0003 	-5.88129e-06 	3.48245e-08 30.0003 	-5.88129e-06 	3.48245e-08 30.0003 	-5.88129e-06 	3.48245e-08 30.0002 	-1.7738e-07 	-3.30783e-07 30.0003 	-5.91312e-06 	-1.70499e-08 30.0003 	-5.91312e-06 	-1.70499e-08 30.0003 	-5.91312e-06 	-1.70499e-08 30.0003 	-5.91312e-06 	-1.70499e-08 30.0002 	-1.78024e-07 	-4.01812e-07 30.0003 	-5.94623e-06 	-6.90259e-08 30.0003 	-5.94623e-06 	-6.90259e-08 30.0003 	-5.94623e-06 	-6.90259e-08 30.0003 	-5.94623e-06 	-6.90259e-08 30.0002 	-1.78624e-07 	-4.67082e-07 30.0003 	-5.97817e-06 	-1.23287e-07 30.0003 	-5.97817e-06 	-1.23287e-07 30.0003 	-5.97817e-06 	-1.23287e-07 30.0003 	-5.97817e-06 	-1.23287e-07 30.0002 	-2.58088e-06 	-3.01378e-07 30.0003 	-6.00594e-06 	-1.77929e-07 30.0003 	-6.00594e-06 	-1.77929e-07 30.0003 	-6.00594e-06 	-1.77929e-07 30.0003 	-6.00594e-06 	-1.77929e-07 30.0002 	-1.79798e-07 	-5.84888e-07 30.0003 	-6.03008e-06 	-2.29184e-07 30.0003 	-6.03008e-06 	-2.29184e-07 30.0003 	-6.03008e-06 	-2.29184e-07 30.0003 	-6.03007e-06 	-2.29184e-07 30.0002 	-1.80399e-07 	-6.42148e-07 30.0003 	-6.05331e-06 	-2.76146e-07 30.0003 	-6.0533e-06 	-2.76146e-07 30.0003 	-6.0533e-06 	-2.76146e-07 30.0003 	-6.0533e-06 	-2.76146e-07 30.0002 	-2.70893e-06 	-4.78978e-07 30.0003 	-6.07715e-06 	-3.19627e-07 30.0003 	-6.07715e-06 	-3.19627e-07 30.0003 	-6.07715e-06 	-3.19627e-07 30.0003 	-6.07714e-06 	-3.19627e-07 30.0002 	-2.74996e-06 	-5.34021e-07 30.0003 	-6.10146e-06 	-3.61152e-07 30.0003 	-6.10146e-06 	-3.61152e-07 30.0003 	-6.10145e-06 	-3.61152e-07 30.0003 	-6.10145e-06 	-3.61151e-07 30.0002 	-1.8213e-07 	-8.03781e-07 30.0003 	-6.12549e-06 	-4.01347e-07 30.0003 	-6.12549e-06 	-4.01347e-07 30.0003 	-6.12549e-06 	-4.01347e-07 30.0003 	-6.12549e-06 	-4.01347e-07 30.0001 	-1.8267e-07 	-8.53098e-07 30.0003 	-6.14887e-06 	-4.40341e-07 30.0003 	-6.14886e-06 	-4.40341e-07 30.0003 	-6.14886e-06 	-4.4034e-07 30.0003 	-6.14886e-06 	-4.4034e-07 30.0001 	-1.83191e-07 	-9.00306e-07 30.0003 	-6.1715e-06 	-4.77964e-07 30.0003 	-6.1715e-06 	-4.77964e-07 30.0003 	-6.1715e-06 	-4.77964e-07 30.0003 	-6.1715e-06 	-4.77964e-07 30.0001 	-2.90943e-06 	-7.31449e-07 30.0003 	-6.19327e-06 	-5.1418e-07 30.0003 	-6.19327e-06 	-5.1418e-07 30.0003 	-6.19327e-06 	-5.1418e-07 30.0003 	-6.19327e-06 	-5.14179e-07 30.0001 	-2.9473e-06 	-7.75574e-07 30.0003 	-6.21425e-06 	-5.48797e-07 30.0003 	-6.21425e-06 	-5.48797e-07 30.0003 	-6.21425e-06 	-5.48797e-07 30.0003 	-6.21424e-06 	-5.48797e-07 30.0001 	-1.84705e-07 	-1.02951e-06 30.0003 	-6.23438e-06 	-5.82011e-07 30.0003 	-6.23438e-06 	-5.82011e-07 30.0003 	-6.23438e-06 	-5.82011e-07 30.0003 	-6.23438e-06 	-5.82011e-07 30.0001 	-3.02031e-06 	-8.57461e-07 30.0003 	-6.25363e-06 	-6.13856e-07 30.0003 	-6.25363e-06 	-6.13856e-07 30.0003 	-6.25363e-06 	-6.13855e-07 30.0003 	-6.25363e-06 	-6.13855e-07 30.0001 	-3.0554e-06 	-8.95469e-07 30.0003 	-6.27212e-06 	-6.44382e-07 30.0003 	-6.27212e-06 	-6.44382e-07 30.0003 	-6.27212e-06 	-6.44381e-07 30.0003 	-6.27212e-06 	-6.44381e-07 30.0001 	-1.86126e-07 	-1.14082e-06 30.0003 	-6.28994e-06 	-6.73582e-07 30.0003 	-6.28994e-06 	-6.73582e-07 30.0003 	-6.28994e-06 	-6.73582e-07 30.0003 	-6.28994e-06 	-6.73581e-07 30.0001 	-1.86589e-07 	-1.17457e-06 30.0003 	-6.30694e-06 	-7.014e-07 30.0003 	-6.30694e-06 	-7.014e-07 30.0003 	-6.30694e-06 	-7.014e-07 30.0003 	-6.30694e-06 	-7.014e-07 30.0001 	-1.8703e-07 	-1.20666e-06 30.0003 	-6.323e-06 	-7.27835e-07 30.0003 	-6.323e-06 	-7.27835e-07 30.0003 	-6.323e-06 	-7.27834e-07 30.0003 	-6.323e-06 	-7.27834e-07 30.0001 	-3.18685e-06 	-1.03099e-06 30.0003 	-6.33825e-06 	-7.52946e-07 30.0003 	-6.33825e-06 	-7.52946e-07 30.0003 	-6.33825e-06 	-7.52945e-07 30.0003 	-6.33824e-06 	-7.52945e-07 30.0001 	-1.87877e-07 	-1.26594e-06 30.0003 	-6.35277e-06 	-7.76915e-07 30.0003 	-6.35277e-06 	-7.76915e-07 30.0003 	-6.35276e-06 	-7.76915e-07 30.0003 	-6.35276e-06 	-7.76914e-07 30.0001 	-1.8829e-07 	-1.2933e-06 30.0003 	-6.36655e-06 	-7.99788e-07 30.0003 	-6.36655e-06 	-7.99787e-07 30.0003 	-6.36654e-06 	-7.99787e-07 30.0003 	-6.36654e-06 	-7.99787e-07 30.0001 	-3.27623e-06 	-1.11604e-06 30.0003 	-6.3796e-06 	-8.21518e-07 30.0003 	-6.3796e-06 	-8.21518e-07 30.0003 	-6.3796e-06 	-8.21518e-07 30.0003 	-6.3796e-06 	-8.21518e-07 30.0001 	-3.30434e-06 	-1.14151e-06 30.0003 	-6.39194e-06 	-8.41954e-07 30.0003 	-6.39194e-06 	-8.41953e-07 30.0003 	-6.39194e-06 	-8.41953e-07 30.0003 	-6.39194e-06 	-8.41953e-07 30.0001 	-1.8947e-07 	-1.36684e-06 30.0003 	-6.40357e-06 	-8.6135e-07 30.0003 	-6.40356e-06 	-8.6135e-07 30.0003 	-6.40356e-06 	-8.6135e-07 30.0003 	-6.40356e-06 	-8.6135e-07 30.0001 	-1.8985e-07 	-1.38872e-06 30.0003 	-6.41448e-06 	-8.7979e-07 30.0003 	-6.41448e-06 	-8.7979e-07 30.0003 	-6.41448e-06 	-8.79789e-07 30.0003 	-6.41448e-06 	-8.79789e-07 30.0001 	-1.90221e-07 	-1.40937e-06 30.0003 	-6.42471e-06 	-8.9728e-07 30.0003 	-6.42471e-06 	-8.97279e-07 30.0003 	-6.4247e-06 	-8.97279e-07 30.0003 	-6.4247e-06 	-8.97279e-07 30.0001 	-3.40866e-06 	-1.23051e-06 30.0003 	-6.43427e-06 	-9.13865e-07 30.0003 	-6.43426e-06 	-9.13865e-07 30.0003 	-6.43426e-06 	-9.13865e-07 30.0003 	-6.43426e-06 	-9.13864e-07 30.0001 	-3.43279e-06 	-1.24984e-06 30.0003 	-6.44321e-06 	-9.29552e-07 30.0003 	-6.44321e-06 	-9.29551e-07 30.0003 	-6.44321e-06 	-9.29551e-07 30.0003 	-6.44321e-06 	-9.29551e-07 30.0001 	-1.91326e-07 	-1.46454e-06 30.0003 	-6.45152e-06 	-9.44405e-07 30.0003 	-6.45152e-06 	-9.44405e-07 30.0003 	-6.45152e-06 	-9.44404e-07 30.0003 	-6.45152e-06 	-9.44404e-07 30.0001 	-3.4789e-06 	-1.28533e-06 30.0003 	-6.45919e-06 	-9.58414e-07 30.0003 	-6.45919e-06 	-9.58413e-07 30.0003 	-6.45919e-06 	-9.58413e-07 30.0003 	-6.45918e-06 	-9.58413e-07 30.0001 	-3.50096e-06 	-1.3016e-06 30.0003 	-6.46628e-06 	-9.71705e-07 30.0003 	-6.46628e-06 	-9.71705e-07 30.0003 	-6.46628e-06 	-9.71704e-07 30.0003 	-6.46627e-06 	-9.71704e-07 30.0001 	-1.92