# vtk DataFile Version 2.0
track0
ASCII
DATASET POLYDATA
POINTS 15780 float
-1.001 -0.05 0.0011
-1.0008 -0.05 0.0011
-1.0006 -0.05 0.0011
-1.0004 -0.05 0.0011
-1.0002 -0.05 0.0011
-1 -0.05 0.0011
-0.9875 -0.05 0.0011
-0.975 -0.05 0.0011
-0.9625 -0.05 0.0011
-0.95 -0.05 0.0011
-0.9375 -0.05 0.00109999
-0.925 -0.05 0.00109999
-0.9125 -0.05 0.00109999
-0.9 -0.05 0.00109999
-0.8875 -0.05 0.00109999
-0.875 -0.05 0.00109999
-0.8625 -0.05 0.00109999
-0.85 -0.05 0.00109999
-0.8375 -0.05 0.00109998
-0.825 -0.0500001 0.00109998
-0.8125 -0.0500001 0.00109998
-0.8 -0.0500001 0.00109998
-0.7875 -0.0500001 0.00109998
-0.775 -0.0500001 0.00109998
-0.7625 -0.0500001 0.00109998
-0.75 -0.0500001 0.00109998
-0.7375 -0.0500001 0.00109997
-0.725 -0.0500001 0.00109997
-0.7125 -0.0500001 0.00109997
-0.7 -0.0500001 0.00109997
-0.6875 -0.0500001 0.00109997
-0.675 -0.0500001 0.00109997
-0.6625 -0.0500001 0.00109997
-0.65 -0.0500001 0.00109996
-0.6375 -0.0500001 0.00109996
-0.625 -0.0500001 0.00109996
-0.6125 -0.0500001 0.00109996
-0.6 -0.0500001 0.00109996
-0.5875 -0.0500001 0.00109996
-0.575 -0.0500001 0.00109996
-0.5625 -0.0500001 0.00109996
-0.55 -0.0500001 0.00109995
-0.5375 -0.0500001 0.00109995
-0.525 -0.0500001 0.00109995
-0.5125 -0.0500001 0.00109995
-0.5 -0.0500001 0.00109995
-0.4875 -0.0500001 0.00109995
-0.475 -0.0500001 0.00109995
-0.4625 -0.0500001 0.00109994
-0.45 -0.0500002 0.00109994
-0.4375 -0.0500002 0.00109994
-0.425 -0.0500002 0.00109994
-0.4125 -0.0500002 0.00109994
-0.4 -0.0500002 0.00109994
-0.3875 -0.0500002 0.00109994
-0.375 -0.0500002 0.00109994
-0.3625 -0.0500002 0.00109993
-0.35 -0.0500002 0.00109993
-0.3375 -0.0500002 0.00109993
-0.325 -0.0500002 0.00109993
-0.3125 -0.0500002 0.00109993
-0.3 -0.0500002 0.00109993
-0.2875 -0.0500002 0.00109993
-0.275 -0.0500002 0.00109993
-0.2625 -0.0500002 0.00109992
-0.25 -0.0500002 0.00109992
-0.2375 -0.0500002 0.00109992
-0.225 -0.0500002 0.00109992
-0.2125 -0.0500002 0.00109992
-0.2 -0.0500002 0.00109992
-0.1875 -0.0500002 0.00109992
-0.175 -0.0500002 0.00109992
-0.1625 -0.0500002 0.00109991
-0.15 -0.0500002 0.00109991
-0.1375 -0.0500002 0.00109991
-0.125 -0.0500002 0.00109991
-0.1125 -0.0500002 0.00109991
-0.1 -0.0500002 0.00109991
-0.0875 -0.0500002 0.00109991
-0.075 -0.0500002 0.00109991
-0.0625 -0.0500002 0.00109991
-0.05 -0.0500003 0.00109991
-0.0375 -0.0500003 0.0010999
-0.025 -0.0500003 0.0010999
-0.0125 -0.0500003 0.0010999
2.10607e-13 -0.0500003 0.0010999
0.0125 -0.0500003 0.0010999
0.025 -0.0500003 0.0010999
0.0375 -0.0500003 0.0010999
0.05 -0.0500003 0.0010999
0.0625 -0.0500003 0.0010999
0.075 -0.0500003 0.0010999
0.0875 -0.0500003 0.0010999
0.1 -0.0500003 0.00109989
0.1125 -0.0500003 0.00109989
0.125 -0.0500003 0.00109989
0.1375 -0.0500003 0.00109989
0.15 -0.0500003 0.00109989
0.1625 -0.0500003 0.00109989
0.175 -0.0500003 0.00109989
0.1875 -0.0500003 0.00109989
0.2 -0.0500003 0.00109989
0.2125 -0.0500003 0.00109989
0.225 -0.0500003 0.00109989
0.2375 -0.0500003 0.00109989
0.25 -0.0500003 0.00109989
0.2625 -0.0500003 0.00109988
0.275 -0.0500003 0.00109988
0.2875 -0.0500003 0.00109988
0.3 -0.0500003 0.00109988
0.3125 -0.0500003 0.00109988
0.325 -0.0500003 0.00109988
0.3375 -0.0500003 0.00109988
0.35 -0.0500003 0.00109988
0.3625 -0.0500003 0.00109988
0.375 -0.0500003 0.00109988
0.3875 -0.0500003 0.00109988
0.4 -0.0500004 0.00109988
0.4125 -0.0500004 0.00109988
0.425 -0.0500004 0.00109988
0.4375 -0.0500004 0.00109988
0.45 -0.0500004 0.00109988
0.4625 -0.0500004 0.00109988
0.475 -0.0500004 0.00109988
0.4875 -0.0500004 0.00109988
0.5 -0.0500004 0.00109988
0.5125 -0.0500004 0.00109988
0.525 -0.0500004 0.00109988
0.5375 -0.0500004 0.00109988
0.55 -0.0500004 0.00109988
0.5625 -0.0500004 0.00109988
0.575 -0.0500004 0.00109987
0.5875 -0.0500004 0.00109987
0.6 -0.0500004 0.00109987
0.6125 -0.0500004 0.00109987
0.625 -0.0500004 0.00109987
0.6375 -0.0500004 0.00109987
0.65 -0.0500004 0.00109987
0.6625 -0.0500004 0.00109987
0.675 -0.0500004 0.00109987
0.6875 -0.0500004 0.00109987
0.7 -0.0500004 0.00109987
0.7125 -0.0500004 0.00109987
0.725 -0.0500004 0.00109987
0.7375 -0.0500004 0.00109987
0.75 -0.0500004 0.00109987
0.7625 -0.0500004 0.00109987
0.775 -0.0500004 0.00109987
0.7875 -0.0500004 0.00109987
0.8 -0.0500004 0.00109987
0.8125 -0.0500004 0.00109987
0.825 -0.0500004 0.00109987
0.8375 -0.0500004 0.00109987
0.85 -0.0500004 0.00109987
0.8625 -0.0500004 0.00109987
0.875 -0.0500004 0.00109987
0.8875 -0.0500004 0.00109987
0.9 -0.0500004 0.00109987
0.9125 -0.0500005 0.00109988
0.925 -0.0500005 0.00109988
0.9375 -0.0500005 0.00109988
0.95 -0.0500005 0.00109988
0.9625 -0.0500005 0.00109988
0.975 -0.0500005 0.00109988
0.9875 -0.0500005 0.00109988
1 -0.0500005 0.00109988
1.0125 -0.0500005 0.00109988
1.025 -0.0500005 0.00109988
1.0375 -0.0500005 0.00109988
1.05 -0.0500005 0.00109988
1.0625 -0.0500005 0.00109988
1.075 -0.0500005 0.00109988
1.0875 -0.0500005 0.00109988
1.1 -0.0500005 0.00109988
1.1125 -0.0500005 0.00109988
1.125 -0.0500005 0.00109988
1.1375 -0.0500005 0.00109988
1.15 -0.0500005 0.00109988
1.1625 -0.0500005 0.00109988
1.175 -0.0500005 0.00109988
1.1875 -0.0500005 0.00109988
1.2 -0.0500005 0.00109988
1.2125 -0.0500005 0.00109988
1.225 -0.0500005 0.00109988
1.2375 -0.0500005 0.00109989
1.25 -0.0500005 0.00109989
1.2625 -0.0500005 0.00109989
1.275 -0.0500005 0.00109989
1.2875 -0.0500005 0.00109989
1.3 -0.0500005 0.00109989
1.3125 -0.0500005 0.00109989
1.325 -0.0500005 0.00109989
1.3375 -0.0500005 0.00109989
1.35 -0.0500005 0.00109989
1.3625 -0.0500005 0.00109989
1.375 -0.0500005 0.00109989
1.3875 -0.0500005 0.00109989
1.4 -0.0500005 0.00109989
1.4125 -0.0500005 0.00109989
1.425 -0.0500005 0.00109989
1.4375 -0.0500005 0.0010999
1.45 -0.0500005 0.0010999
1.4625 -0.0500005 0.0010999
1.475 -0.0500005 0.0010999
1.4875 -0.0500005 0.0010999
1.5 -0.0500006 0.0010999
1.5125 -0.0500006 0.0010999
1.525 -0.0500006 0.0010999
1.5375 -0.0500006 0.0010999
1.55 -0.0500006 0.0010999
1.5625 -0.0500006 0.0010999
1.575 -0.0500006 0.0010999
1.5875 -0.0500006 0.0010999
1.6 -0.0500006 0.0010999
1.6125 -0.0500006 0.00109991
1.625 -0.0500006 0.00109991
1.6375 -0.0500006 0.00109991
1.65 -0.0500006 0.00109991
1.6625 -0.0500006 0.00109991
1.675 -0.0500006 0.00109991
1.6875 -0.0500006 0.00109991
1.7 -0.0500006 0.00109991
1.7125 -0.0500006 0.00109991
1.725 -0.0500006 0.00109991
1.7375 -0.0500006 0.00109991
1.75 -0.0500006 0.00109991
1.7625 -0.0500006 0.00109992
1.775 -0.0500006 0.00109992
1.7875 -0.0500006 0.00109992
1.8 -0.0500006 0.00109992
1.8125 -0.0500006 0.00109992
1.825 -0.0500006 0.00109992
1.8375 -0.0500006 0.00109992
1.85 -0.0500006 0.00109992
1.8625 -0.0500006 0.00109992
1.875 -0.0500006 0.00109992
1.8875 -0.0500006 0.00109992
1.9 -0.0500006 0.00109992
1.9125 -0.0500006 0.00109993
1.925 -0.0500006 0.00109993
1.9375 -0.0500006 0.00109993
1.95 -0.0500006 0.00109993
1.9625 -0.0500006 0.00109993
1.975 -0.0500006 0.00109993
1.9875 -0.0500006 0.00109993
2 -0.0500006 0.00109993
2.0125 -0.0500006 0.00109993
2.025 -0.0500006 0.00109993
2.0375 -0.0500006 0.00109993
2.05 -0.0500006 0.00109993
2.0625 -0.0500006 0.00109993
2.075 -0.0500006 0.00109994
2.0875 -0.0500006 0.00109994
2.1 -0.0500006 0.00109994
2.1125 -0.0500006 0.00109994
2.125 -0.0500006 0.00109994
2.1375 -0.0500006 0.00109994
2.15 -0.0500006 0.00109994
2.1625 -0.0500006 0.00109994
2.175 -0.0500007 0.00109994
2.1875 -0.0500007 0.00109994
2.2 -0.0500007 0.00109994
2.2125 -0.0500007 0.00109994
2.225 -0.0500007 0.00109995
2.2375 -0.0500007 0.00109995
2.25 -0.0500007 0.00109995
2.2625 -0.0500007 0.00109995
2.275 -0.0500007 0.00109995
2.2875 -0.0500007 0.00109995
2.3 -0.0500007 0.00109995
2.3125 -0.0500007 0.00109995
2.325 -0.0500007 0.00109995
2.3375 -0.0500007 0.00109995
2.35 -0.0500007 0.00109995
2.3625 -0.0500007 0.00109995
2.375 -0.0500007 0.00109995
2.3875 -0.0500007 0.00109996
2.4 -0.0500007 0.00109996
2.4125 -0.0500007 0.00109996
2.425 -0.0500007 0.00109996
2.4375 -0.0500007 0.00109996
2.45 -0.0500007 0.00109996
2.4625 -0.0500007 0.00109996
2.475 -0.0500007 0.00109996
2.4875 -0.0500007 0.00109996
2.5 -0.0500007 0.00109996
2.5125 -0.0500007 0.00109996
2.525 -0.0500007 0.00109996
2.5375 -0.0500007 0.00109996
2.55 -0.0500007 0.00109996
2.5625 -0.0500007 0.00109997
2.575 -0.0500007 0.00109997
2.5875 -0.0500007 0.00109997
2.6 -0.0500007 0.00109997
2.6125 -0.0500007 0.00109997
2.625 -0.0500007 0.00109997
2.6375 -0.0500007 0.00109997
2.65 -0.0500007 0.00109997
2.6625 -0.0500007 0.00109997
2.675 -0.0500007 0.00109997
2.6875 -0.0500007 0.00109997
2.7 -0.0500007 0.00109997
2.7125 -0.0500007 0.00109997
2.725 -0.0500007 0.00109997
2.7375 -0.0500007 0.00109997
2.75 -0.0500007 0.00109997
2.7625 -0.0500007 0.00109998
2.775 -0.0500007 0.00109998
2.7875 -0.0500007 0.00109998
2.8 -0.0500007 0.00109998
2.8125 -0.0500007 0.00109998
2.825 -0.0500007 0.00109998
2.8375 -0.0500007 0.00109998
2.85 -0.0500007 0.00109998
2.8625 -0.0500008 0.00109998
2.875 -0.0500008 0.00109998
2.8875 -0.0500008 0.00109998
2.9 -0.0500008 0.00109998
2.9125 -0.0500008 0.00109998
2.925 -0.0500008 0.00109998
2.9375 -0.0500008 0.00109998
2.95 -0.0500008 0.00109998
2.9625 -0.0500008 0.00109998
2.975 -0.0500008 0.00109998
2.9875 -0.0500008 0.00109998
3 -0.0500008 0.00109998
3.0125 -0.0500008 0.00109999
3.025 -0.0500008 0.00109999
3.0375 -0.0500008 0.00109999
3.05 -0.0500008 0.00109999
3.0625 -0.0500008 0.00109999
3.075 -0.0500008 0.00109999
3.0875 -0.0500008 0.00109999
3.1 -0.0500008 0.00109999
3.1125 -0.0500008 0.00109999
3.125 -0.0500008 0.00109999
3.1375 -0.0500008 0.00109999
3.15 -0.0500008 0.00109999
3.1625 -0.0500008 0.00109999
3.175 -0.0500008 0.00109999
3.1875 -0.0500008 0.00109999
3.2 -0.0500008 0.00109999
3.2125 -0.0500008 0.00109999
3.225 -0.0500008 0.00109999
3.2375 -0.0500008 0.00109999
3.25 -0.0500008 0.00109999
3.2625 -0.0500008 0.00109999
3.275 -0.0500008 0.00109999
3.2875 -0.0500008 0.00109999
3.3 -0.0500008 0.00109999
3.3125 -0.0500008 0.00109999
3.325 -0.0500008 0.00109999
3.3375 -0.0500008 0.00109999
3.35 -0.0500008 0.0011
3.3625 -0.0500008 0.0011
[...]
POINT_DATA 15780
 FIELD attributes 2
p 1 15780 float
-0.0310975 -0.0311136 -0.0311296 -0.0311457 -0.0311617 -0.0311777 -0.0321092 -0.0330329 -0.0339567 -0.0348804 -0.0359008 -0.0369647 -0.0380311 -0.0390974 -0.0401638 -0.0411835 -0.0421669 -0.0431317 -0.0440965 -0.0450613 -0.0459744 -0.0468723 -0.0477748 -0.0486774 -0.0495799 -0.0504767 -0.0513772 -0.0522788 -0.0531803 -0.0540818 -0.0549826 -0.0558901 -0.0567981 -0.057706 -0.058614 -0.0595214 -0.060421 -0.0613185 -0.062216 -0.0631135 -0.0640081 -0.0648872 -0.0657643 -0.0666415 -0.0675186 -0.0683937 -0.0692511 -0.0701064 -0.0709617 -0.071817 -0.0726704 -0.073505 -0.0743371 -0.0751691 -0.0760011 -0.0768308 -0.0776391 -0.0784443 -0.0792494 -0.0800546 -0.0808569 -0.0816351 -0.0824093 -0.0831836 -0.0839579 -0.0847285 -0.0854727 -0.0862126 -0.0869526 -0.0876925 -0.0884286 -0.0891359 -0.0898385 -0.090541 -0.0912436 -0.0919416 -0.0926089 -0.093271 -0.0939332 -0.0945953 -0.0952525 -0.095877 -0.0964958 -0.0971147 -0.0977335 -0.0983468 -0.0989258 -0.099499 -0.100072 -0.100645 -0.101213 -0.101745 -0.102271 -0.102798 -0.103324 -0.103844 -0.104328 -0.104806 -0.105284 -0.105761 -0.106233 -0.106667 -0.107094 -0.10752 -0.107947 -0.108367 -0.108747 -0.10912 -0.109493 -0.109866 -0.110231 -0.110555 -0.110872 -0.111189 -0.111507 -0.111816 -0.112084 -0.112344 -0.112604 -0.112865 -0.113117 -0.113327 -0.11353 -0.113733 -0.113935 -0.11413 -0.114282 -0.114426 -0.114571 -0.114715 -0.11485 -0.114943 -0.115029 -0.115114 -0.1152 -0.115277 -0.115313 -0.115342 -0.115371 -0.1154 -0.115421 -0.115403 -0.115377 -0.115352 -0.115327 -0.115294 -0.115223 -0.115146 -0.115068 -0.11499 -0.114905 -0.114783 -0.114653 -0.114524 -0.114394 -0.114257 -0.114083 -0.113902 -0.113721 -0.11354 -0.113351 -0.113128 -0.112897 -0.112666 -0.112436 -0.112198 -0.111928 -0.111651 -0.111375 -0.111098 -0.110814 -0.1105 -0.110179 -0.109859 -0.109538 -0.109211 -0.108854 -0.108492 -0.108129 -0.107767 -0.107398 -0.107001 -0.106599 -0.106197 -0.105795 -0.105388 -0.104954 -0.104516 -0.104078 -0.10364 -0.103196 -0.102729 -0.102259 -0.101788 -0.101318 -0.100843 -0.100349 -0.0998509 -0.0993528 -0.0988547 -0.0983525 -0.0978337 -0.0973112 -0.0967888 -0.0962664 -0.0957401 -0.0951991 -0.0946548 -0.0941104 -0.093566 -0.093018 -0.092457 -0.0918932 -0.0913295 -0.0907657 -0.0901987 -0.0896211 -0.0890409 -0.0884607 -0.0878805 -0.0872974 -0.0867059 -0.0861125 -0.0855191 -0.0849257 -0.0843301 -0.0837282 -0.0831247 -0.0825212 -0.0819176 -0.0813121 -0.0807024 -0.0800916 -0.0794808 -0.07887 -0.0782577 -0.0776432 -0.0770279 -0.0764125 -0.0757971 -0.0751804 -0.0745634 -0.073946 -0.0733286 -0.0727112 -0.072093 -0.0714763 -0.0708593 -0.0702423 -0.0696253 -0.0690078 -0.0683932 -0.0677789 -0.0671645 -0.0665502 -0.0659358 -0.0653257 -0.064716 -0.0641064 -0.0634967 -0.062887 -0.0622831 -0.0616799 -0.0610767 -0.0604735 -0.0598708 -0.0592749 -0.0586799 -0.0580848 -0.0574898 -0.0568955 -0.0563089 -0.0557237 -0.0551384 -0.0545532 -0.0539689 -0.0533935 -0.0528194 -0.0522452 -0.0516711 -0.0510981 -0.0505347 -0.0499729 -0.0494112 -0.0488494 -0.0482891 -0.047739 -0.0471907 -0.0466423 -0.046094 -0.0455471 -0.0450111 -0.0444771 -0.0439431 -0.043409 -0.0428768 -0.0423559 -0.041837 -0.041318 -0.0407991 -0.0402819 -0.0397766 -0.0392734 -0.0387702 -0.038267 -0.0377658 -0.0372767 -0.0367897 -0.0363027 -0.0358158 -0.0353308 -0.0348582 -0.0343878 -0.0339175 -0.0334471 -0.032979 -0.0325232 -0.0320697 -0.0316163 -0.0311628 -0.0307115 -0.0302727 -0.0298363 -0.0293999 -0.0289635 -0.0285294 -0.0281077 -0.0276884 -0.027269 -0.0268497 -0.0264327 -0.0260281 -0.0256259 -0.0252236 -0.0248214 -0.0244216 -0.024034 -0.0236489 -0.0232638 -0.0228787 -0.022496 -0.0221256 -0.0217577 -0.0213898 -0.0210219 -0.0206565 -0.0203033 -0.0199526 -0.0196018 -0.0192511 -0.0189027 -0.018566 -0.018232 -0.017898 -0.017564 -0.0172324 -0.0169121 -0.0165942 -0.0162763 -0.0159584 -0.015643 -0.0153384 -0.0150361 -0.0147337 -0.0144314 -0.0141316 -0.0138423 -0.0135552 -0.0132682 -0.0129811 -0.0126966 -0.0124223 -0.0121502 -0.0118781 -0.011606 -0.0113362 -0.0110765 -0.0108191 -0.0105616 -0.0103042 -0.010049 -0.00980368 -0.00956053 -0.00931737 -0.00907422 -0.00883327 -0.00860179 -0.00837236 -0.00814293 -0.00791349 -0.00768615 -0.00746779 -0.00725154 -0.0070353 -0.00681905 -0.00660488 -0.00639936 -0.00619586 -0.00599236 -0.00578887 -0.00558737 -0.00539414 -0.00520303 -0.00501192 -0.00482081 -0.00463179 -0.00445075 -0.00427182 -0.00409289 -0.00391395 -0.00373707 -0.00356783 -0.00340066 -0.00323348 -0.0030663 -0.00290116 -0.00274311 -0.00258694 -0.00243077 -0.00227459 -0.00212045 -0.00197294 -0.00182696 -0.00168098 -0.001535 -0.0013908 -0.00125284 -0.00111648 -0.000980125 -0.000843768 -0.000709185 -0.000580512 -0.000453448 -0.000326383 -0.000199319 -7.39003e-05 4.57667e-05 0.000163818 0.00028187 0.000399922 0.000516355 0.00062734 0.00073674 0.00084614 0.000955539 0.00106332 0.00116605 0.00126724 0.00136843 0.00146962 0.00156922 0.00166411 0.00175754 0.00185097 0.0019444 0.00203632 0.00212386 0.00220996 0.00229607 0.00238217 0.0024668 0.0025473 0.00262648 0.00270565 0.00278482 0.0028626 0.00293654 0.00300916 0.00308178 0.00315441 0.00322564 0.00329334 0.00335979 0.00342624 0.00349269 0.00355784 0.0036197 0.00368033 0.00374097 0.00380161 0.00386096 0.00391728 0.00397246 0.00402764 0.00408282 0.00413679 0.00418798 0.00423804 0.00428809 0.00433815 0.004387 0.00443331 0.00447854 0.00452377 0.00456901 0.00461311 0.00465488 0.00469558 0.00473628 0.00477699 0.00481658 0.00485403 0.0048905 0.00492696 0.00496343 0.00499885 0.00503234 0.00506485 0.00509736 0.00512987 0.00516133 0.00519106 0.00521988 0.00524869 0.0052775 0.00530535 0.00533162 0.00535698 0.00538235 0.00540772 0.00543212 0.00545512 0.00547728 0.00549944 0.0055216 0.00554285 0.00556288 0.00558207 0.00560125 0.00562044 0.00563872 0.00565594 0.00567238 0.00568881 0.00570525 0.00572084 0.00573552 0.00574941 0.0057633 0.00577719 0.00579025 0.00580251 0.00581405 0.0058256 0.00583714 0.00584791 0.00585801 0.00586739 0.00587677 0.00588614 0.00589475 0.00590282 0.00591021 0.0059176 0.00592499 0.00593167 0.00593792 0.00594349 0.00594907 0.00595464 0.0059595 0.00596404 0.00596796 0.00597187 0.00597579 0.00597903 0.00598208 0.00598449 0.0059869 0.00598931 0.00599105 0.00599268 0.00599372 0.00599476 0.00599581 0.00599622 0.00599661 0.00599642 0.00599622 0.00599602 0.00599519 0.00599443 0.00599312 0.00599181 0.00599051 0.00598862 0.00598688 0.00598459 0.0059823 0.00598001 0.00597713 0.00597448 0.00597131 0.00596814 0.00596497 0.00596125 0.00595782 0.00595388 0.00594994 0.00594599 0.0059415 0.00593737 0.00593276 0.00592815 0.00592354 0.00591842 0.00591373 0.00590855 0.00590338 0.0058982 0.00589251 0.00588733 0.00588168 0.00587603 0.00587038 0.00586425 0.00585868 0.00585265 0.00584662 0.00584059 0.00583408 0.00582818 0.00582185 0.00581552 0.00580919 0.00580241 0.00579629 0.00578975 0.0057832 0.00577665 0.00576964 0.00576338 0.00575669 0.00575 0.00574331 0.00573618 0.00572984 0.00572309 0.00571633 0.00570958 0.00570239 0.00569604 0.00568929 0.00568254 0.00567578 0.00566861 0.00566233 0.00565565 0.00564897 0.00564229 0.0056352 0.00562905 0.0056225 0.00561596 0.00560942 0.00560247 0.00559652 0.00559017 0.00558383 0.00557748 0.00557075 0.00556505 0.00555896 0.00555287 0.00554679 0.00554031 0.00553492 0.00552915 0.00552337 0.0055176 0.00551145 0.00550642 0.00550101 0.0054956 0.00549018 0.0054844 0.00547976 0.00547475 0.00546974 0.00546473 0.00545935 0.00545516 0.00545057 0.00544598 0.0054414 0.00543643 0.00543265 0.00542849 0.00542432 0.00542015 0.00541562 0.00541223 0.00540842 0.00540461 0.0054008 0.00539659 0.00539339 0.00538975 0.00538611 0.00538247 0.00537841 0.005375 0.00537109 0.00536717 0.00536326 0.00535886 0.00535396 0.00534823 0.00534251 0.00533679 0.00533028 0.0053215 0.0053123 0.00530309 0.00529389 0.00528419 0.00525807 0.00522642 0.00519477 0.00516312 0.00512659 0.00511511 0.00511776 0.00512042 0.00512307 0.00514869 0.0052323 0.00530834 0.00538771 0.00545068 0.0054963 0.00548927 0.00548544 0.00548161 0.00547781 0.00547628 0.00550316 0.00553085 0.00555853 0.00557821 0.00559918 0.00561311 0.00563196 0.00565085 0.00566973 0.00568406 0.00574695 0.00581197 0.00587699 0.005942 0.00599852 0.00608996 0.00616607 0.00624218 0.0063183 0.00632345 0.00630882 0.00628944 0.00627007 0.00625069 0.00624081 0.00603996 0.0058184 0.00559684 0.00537528 0.00504791 0.00456791 0.00407403 0.00358014 0.00308625 0.00262215 0.00235238 0.00207507 0.00179775 0.00152044 0.00127309 0.00117448 0.00106944 0.000964399 0.000859359 0.000773698 0.000667768 0.000556282 0.000444795 0.000333308 0.000255304
-0.0319469 -0.031966 -0.0319851 -0.0320042 -0.0320233 -0.0320424 -0.0327433 -0.0336209 -0.0344036 -0.035166 -0.0362243 -0.037261 -0.0382514 -0.0392538 -0.0403132 -0.0412972 -0.0422584 -0.0432244 -0.044165 -0.0451003 -0.0460062 -0.0469043 -0.0478103 -0.0487162 -0.0496214 -0.0505264 -0.0514181 -0.0523219 -0.0532306 -0.0541403 -0.0550607 -0.0559658 -0.056878 -0.0577898 -0.0586993 -0.0596143 -0.0605157 -0.061414 -0.0623136 -0.0632135 -0.0641096 -0.0649907 -0.0658707 -0.0667503 -0.0676279 -0.0685038 -0.069362 -0.0702176 -0.0710758 -0.0719346 -0.0727911 -0.0736251 -0.0744606 -0.0752954 -0.0761277 -0.0769614 -0.0777687 -0.0785741 -0.0793818 -0.08019 -0.0809968 -0.0817724 -0.0825496 -0.0833263 -0.0841007 -0.0848766 -0.0856174 -0.0863575 -0.0870997 -0.0878425 -0.0885848 -0.0892872 -0.0899924 -0.0906972 -0.0913998 -0.0921052 -0.0927665 -0.0934287 -0.0940928 -0.0947574 -0.0954233 -0.0960402 -0.0966612 -0.0972819 -0.0979007 -0.0985234 -0.0990925 -0.0996655 -0.10024 -0.100815 -0.101395 -0.101914 -0.102441 -0.102969 -0.103495 -0.104029 -0.104502 -0.104979 -0.105457 -0.105936 -0.106421 -0.106843 -0.10727 -0.107697 -0.108124 -0.108555 -0.108925 -0.109298 -0.10967 -0.110043 -0.110418 -0.110733 -0.111049 -0.111366 -0.111683 -0.112001 -0.11226 -0.11252 -0.11278 -0.113039 -0.113299 -0.113502 -0.113704 -0.113906 -0.114108 -0.11431 -0.114455 -0.114599 -0.114742 -0.114886 -0.115029 -0.115112 -0.115197 -0.115283 -0.115368 -0.115455 -0.115479 -0.115508 -0.115537 -0.115565 -0.115599 -0.115566 -0.11554 -0.115514 -0.115489 -0.115469 -0.115385 -0.115307 -0.115228 -0.115148 -0.115075 -0.114939 -0.114806 -0.114673 -0.114543 -0.114416 -0.114229 -0.114047 -0.113863 -0.113679 -0.113499 -0.113263 -0.113029 -0.112795 -0.112564 -0.112335 -0.112053 -0.111776 -0.111496 -0.111215 -0.110939 -0.110614 -0.11029 -0.109966 -0.109645 -0.109324 -0.108959 -0.108596 -0.108231 -0.107866 -0.107502 -0.107099 -0.106695 -0.106291 -0.105889 -0.105486 -0.105046 -0.104607 -0.104167 -0.103727 -0.103288 -0.102812 -0.102339 -0.101866 -0.101395 -0.100927 -0.100422 -0.0999231 -0.0994219 -0.0989203 -0.0984253 -0.0978961 -0.0973699 -0.0968442 -0.0963213 -0.0958011 -0.0952514 -0.0947067 -0.0941593 -0.0936114 -0.0930683 -0.0924998 -0.0919328 -0.0913662 -0.0908021 -0.090239 -0.0896544 -0.0890739 -0.088491 -0.0879077 -0.0873282 -0.0867304 -0.086134 -0.0855381 -0.0849444 -0.0843517 -0.083744 -0.0831401 -0.0825342 -0.0819278 -0.081325 -0.0807102 -0.0800966 -0.0794835 -0.0788724 -0.0782623 -0.0776431 -0.0770274 -0.0764099 -0.0757919 -0.0751772 -0.0745562 -0.0739364 -0.0733169 -0.0726992 -0.0720825 -0.0714621 -0.0708449 -0.0702261 -0.0696069 -0.0689907 -0.0683732 -0.0677569 -0.0671409 -0.0665263 -0.0659128 -0.0653001 -0.0646903 -0.0640791 -0.0634676 -0.0628587 -0.0622526 -0.0616478 -0.0610432 -0.0604398 -0.0598374 -0.0592397 -0.0586446 -0.0580483 -0.0574518 -0.0568576 -0.0562699 -0.0556833 -0.0550969 -0.0545116 -0.0539271 -0.0533507 -0.0527765 -0.0522014 -0.0516261 -0.0510529 -0.050489 -0.0499262 -0.0493636 -0.0488017 -0.0482408 -0.0476905 -0.0471421 -0.0465931 -0.0460438 -0.0454964 -0.0449605 -0.0444258 -0.0438911 -0.0433571 -0.0428239 -0.0423034 -0.0417844 -0.041265 -0.0407455 -0.0402274 -0.0397227 -0.0392191 -0.0387155 -0.0382123 -0.0377099 -0.0372217 -0.0367347 -0.0362475 -0.0357602 -0.0352741 -0.0348025 -0.0343319 -0.0338614 -0.0333911 -0.0329216 -0.0324671 -0.0320136 -0.0315601 -0.0311065 -0.0306539 -0.0302165 -0.0297801 -0.0293437 -0.0289073 -0.0284718 -0.0280516 -0.0276323 -0.0272131 -0.0267939 -0.0263756 -0.0259725 -0.0255705 -0.0251684 -0.0247662 -0.0243649 -0.0239789 -0.0235939 -0.0232089 -0.022824 -0.02244 -0.0220709 -0.0217033 -0.0213357 -0.0209678 -0.0206012 -0.0202492 -0.0198986 -0.0195481 -0.0191976 -0.0188483 -0.0185129 -0.0181789 -0.017845 -0.0175111 -0.0171784 -0.0168598 -0.016542 -0.0162243 -0.0159066 -0.0155899 -0.0152874 -0.0149854 -0.0146834 -0.0143812 -0.0140795 -0.013793 -0.013506 -0.0132193 -0.0129327 -0.0126458 -0.0123744 -0.0121028 -0.0118311 -0.011559 -0.0112868 -0.0110298 -0.0107724 -0.0105153 -0.0102583 -0.0100009 -0.00975808 -0.00951538 -0.00927261 -0.0090295 -0.00878659 -0.0085576 -0.00832826 -0.00809931 -0.00787046 -0.00764111 -0.00742543 -0.00720991 -0.00699428 -0.00677816 -0.00656229 -0.0063592 -0.00615581 -0.00595295 -0.0057502 -0.00554716 -0.00535618 -0.00516581 -0.00497532 -0.0047843 -0.00459381 -0.00441466 -0.00423579 -0.00405731 -0.00387892 -0.0037009 -0.0035329 -0.00336596 -0.00319898 -0.00303183 -0.0028655 -0.00270888 -0.00255278 -0.00239677 -0.00224079 -0.00208546 -0.00193976 -0.00179419 -0.00164856 -0.00150269 -0.00135713 -0.00122171 -0.00108548 -0.000949641 -0.000813883 -0.000677363 -0.000551399 -0.000424999 -0.000298499 -0.000171547 -4.43069e-05 7.29638e-05 0.00019093 0.000308457 0.000425885 0.000544051 0.000652868 0.000761719 0.000870659 0.00097999 0.00108934 0.00119005 0.00129117 0.00139195 0.00149264 0.00159371 0.00168671 0.00177967 0.0018727 0.00196607 0.00205937 0.00214503 0.00223107 0.00231678 0.00240243 0.0024884 0.00256714 0.00264585 0.00272463 0.00280374 0.00288278 0.00295495 0.0030275 0.00309974 0.0031719 0.00324438 0.00331044 0.00337645 0.00344253 0.00350892 0.00357524 0.00363548 0.00369606 0.00375636 0.0038166 0.00387711 0.00393191 0.00398674 0.00404162 0.00409675 0.00415188 0.0042015 0.0042515 0.00430126 0.00435096 0.00440099 0.00444577 0.00449065 0.00453558 0.00458075 0.004626 0.00466622 0.00470687 0.00474728 0.00478763 0.00482835 0.00486435 0.00490048 0.00493666 0.00497308 0.00500962 0.00504162 0.00507408 0.00510632 0.0051385 0.00517108 0.0051994 0.00522791 0.00525646 0.00528523 0.00531416 0.00533901 0.00536433 0.00538945 0.00541452 0.00544001 0.00546167 0.00548355 0.00550548 0.0055276 0.00554991 0.00556857 0.00558772 0.00560668 0.0056256 0.00564494 0.00566087 0.00567705 0.00569326 0.00570966 0.00572629 0.00573964 0.00575349 0.00576718 0.00578082 0.0057949 0.00580593 0.00581724 0.00582858 0.00584009 0.00585186 0.00586069 0.00587003 0.00587922 0.00588838 0.00589799 0.00590485 0.00591203 0.00591925 0.00592661 0.00593427 0.00593928 0.00594483 0.00595023 0.0059556 0.00596145 0.00596483 0.00596856 0.00597232 0.0059762 0.00598043 0.00598227 0.00598465 0.00598691 0.00598914 0.00599186 0.00599236 0.00599323 0.00599412 0.00599514 0.00599652 0.00599574 0.00599551 0.00599518 0.00599482 0.00599496 0.00599308 0.00599162 0.00599018 0.00598885 0.00598794 0.00598507 0.00598276 0.00598034 0.0059779 0.00597598 0.00597225 0.00596893 0.00596564 0.00596245 0.00595967 0.00595515 0.00595119 0.00594713 0.00594305 0.00593949 0.00593432 0.00592959 0.00592487 0.00592024 0.00591605 0.00591029 0.0059051 0.00589983 0.00589454 0.00588977 0.00588356 0.00587781 0.00587207 0.00586641 0.0058612 0.00585458 0.00584854 0.00584242 0.00583629 0.00583069 0.00582379 0.00581737 0.00581096 0.00580462 0.00579875 0.00579161 0.00578505 0.00577843 0.00577179 0.00576571 0.00575844 0.00575167 0.00574491 0.00573821 0.00573201 0.00572466 0.00571789 0.00571107 0.00570424 0.00569797 0.00569064 0.00568382 0.00567701 0.00567025 0.005664 0.00565672 0.00565003 0.0056433 0.00563656 0.00563038 0.00562326 0.00561666 0.00561007 0.00560352 0.00559751 0.00559056 0.00558421 0.00557782 0.00557143 0.00556562 0.00555895 0.00555282 0.00554671 0.00554061 0.00553508 0.00552871 0.00552293 0.00551713 0.00551133 0.00550612 0.00550012 0.00549469 0.00548927 0.00548385 0.00547904 0.00547342 0.00546841 0.0054634 0.0054584 0.005454 0.00544883 0.00544428 0.00543973 0.00543514 0.00543121 0.00542645 0.00542229 0.0054182 0.00541414 0.00541068 0.00540631 0.00540272 0.00539909 0.0053953 0.00539232 0.00538816 0.00538457 0.00538134 0.00537819 0.00537563 0.0053713 0.00536849 0.00536549 0.00536172 0.00535944 0.00535412 0.00534887 0.00534587 0.00534342 0.00534098 0.00533194 0.00533021 0.00532729 0.00531935 0.00531831 0.00530399 0.00527943 0.00527492 0.00527514 0.00526441 0.00522151 0.00523308 0.00524345 0.00524872 0.00531683 0.0054103 0.00547386 0.00553744 0.00557542 0.00552911 0.0055099 0.00550286 0.00549582 0.00548832 0.00549232 0.00550987 0.00552804 0.0055462 0.00555791 0.00556918 0.00557023 0.00557128 0.00557234 0.00557326 0.00557396 0.00559879 0.00562775 0.00565679 0.00568583 0.00565922 0.00569737 0.00576002 0.00582304 0.00588606 0.00596605 0.00618034 0.00626936 0.00635183 0.00642794 0.00632103 0.00635689 0.00633752 0.00632107 0.00631161 0.00625624 0.0062097 0.00598814 0.00576658 0.00553244 0.00503884 0.00469922 0.00420533 0.00371145 0.00321488 0.00259607 0.00241444 0.00213713 0.00185981 0.0015825 0.00124269 0.00122358 0.00111854 0.0010135 0.000908459 0.000751267 0.000715258 0.000603773 0.000492288 0.000380803 0.000206778