# vtk DataFile Version 2.0
sampleSurface
ASCII
DATASET POLYDATA
POINTS 9879 float
6 2.24045e-22 1 6 -4.23516e-22 0 5 0 0 5 4.23516e-22
0.5 5 5.02844e-23 1 7 1.69508e-17 0 6 2.40786e-23 1
7 -4.23516e-22 1 8 -1.0754e-16 0 8 4.23516e-22 1 9
-7.28995e-17 0 9 4.23516e-22 1 10 5.03714e-17 0 10 -4.23516e-22
1 11 -1.10109e-16 0 11 0 1 12 1.14673e-16 0
12 0 1 13 1.07357e-16 0 13 -2.11758e-22 1 14
-3.31971e-17 0 14 0 1 15 0 1 15 5.68977e-17
0 -5 -1.61559e-27 0 -5 1.61559e-27 0 -5 0 0.5
-5 8.07794e-28 0.5 -2.89285 0 0 -3.00033 0 0 -3.00033
-8.47033e-22 0.0932873 -1.00051 -1.01779e-17 0.124742 -0.875522 0 0.124691 -0.875461 -8.40257e-19
0 -1.00046 0 0 0.015625 1.94517e-24 2.2091e-05 5.35603e-05 -1.21492e-24 0.0155233
0.0156432 3.30872e-24 0.0155555 1.00057 -5.42101e-19 0.0152422 1.00056 0 0.0308735 1.03181
0 0.0308728 1.03183 -1.89735e-19 0 1.00058 0 0 2 1.21939e-17
0.125 2 2.01948e-28 0.25 2.25 0 0.25 2.25 -1.26744e-17 0
2 2.01948e-28 0 3 2.86199e-17 0.25 3 3.16479e-17 0.5 3.5
2.01948e-28 0.5 3.5 -1.71188e-17 0 3 2.01948e-28 0 4 0
0 4 0 0 4 5.4967e-18 0.5 4 1.00974e-28 0.5
6 2.52435e-29 1 5 0 1 6 2.96289e-24 1 5
3.35588e-25 2 6 4.23516e-22 2 7 4.23516e-22 2 8 0
2 9 -4.23516e-22 2 10 0 2 11 2.11758e-22 2
12 0 2 13 -2.11758e-22 2 14 0 2 15
2.11758e-22 2 -5 0 1 -5 0 1.5 -5 0
1.5 -5 0 1 -1.00051 0 1.00028 -1.0005 1.69407e-21 1.07098
-0.875582 -3.38813e-21 1.04431 -0.875573 0 1.00033 -0.000176494 0 1.00043 -0.000187004
1.35525e-18 1.03171 0.0310738 0 1.03178 0.0310423 5.42101e-20 1.0005 0.0154335 0
1.00047 2.25 0 1 2 5.03191e-18 1 2 -8.15581e-18 1.125
2 6.36148e-18 1.25 2.25 0 1.25 3.5 0 1 3
-7.24998e-18 1 3 -1.28933e-17 1.25 3 -3.74554e-18 1.5 3.5 0
1.5 4 0 1 4 2.0972e-17 1.5 4.50019 3.38813e-21 1.50011
4.50001 3.17637e-22 1.0073 4 -1.00974e-28 1 5 -4.34409e-17 1.5 5
-2.52435e-29 2 5 1.60269e-22 2 5 4.23516e-22 2.5 5 0
3 6 -4.23516e-22 3 7 4.23516e-22 3 8 4.23516e-22 3
9 0 3 10 0 3 11 -2.11758e-22 3 12
2.11758e-22 3 13 -2.11758e-22 3 14 2.11758e-22 3 15 0
3 -5 0 2 -5 0 2 -5 0 2
-0.750281 -2.71051e-20 2.0005 -0.996618 -5.0822e-21 2.00034 -0.884887 3.38813e-21 2.25032 -0.750178
-2.73083e-17 2.25039 0.124965 6.77626e-21 2.00046 0.0589837 -3.38813e-21 2.00046 0.102874 -1.69407e-21
2.25032 0.249982 -1.24887e-17 2.25032 0.249997 1.35525e-20 2.00047 1.0005 1.35525e-20 2.00056
1.00037 1.35525e-20 2.25063 1.25045 -1.35525e-20 2.25054 1.25043 -1.69813e-17 2.00047 1.12546
-1.35525e-20 2.00051 2.00018 3.38813e-21 2.00013 2.00027 1.07133e-17 2.25026 2.25027 6.77626e-21
2.25023 2.25017 6.77626e-21 2.00011 3.5 0 2 3.00014 -1.11944e-17 2.00005
3.00014 2.41235e-17 2.25008 3.00001 2.0117e-21 2.49701 3.5 0 2 4
-1.32349e-23 2 4.00001 0 2.00871 4.5 -3.02248e-22 2.5 4.5 2.52435e-29
2.5 4.50017 2.11758e-22 2.00014 -5 0 4 -4.00035 0 4
-4.0004 -5.66496e-18 3.5 -4.00039 0 3 -4.5002 0 3 -5
-9.5459e-22 3 5 -8.47033e-22 3.5 5 2.1923e-22 4 5 1.90287e-22
4 6 4.23516e-22 4 7 0 4 8 0 4
9 4.23516e-22 4 10 0 4 11 2.11758e-22 4 12
2.11758e-22 4 13 0 4 14 2.11758e-22 4 15 0
4 -5 0 3 -5 0 4 -0.750077 -1.69407e-21 3.00019
-0.975165 6.35275e-22 3.00002 -0.50002 0 3.43551 -0.50014 0 3.00035 0.249985
0 3.00023 0.097637 1.69407e-21 3.00023 0.500042 3.38813e-21 3.26572 0.500014 0
3.00034 1.00005 -1.35525e-20 3.00048 1.00018 8.47033e-22 3.50026 1.50019 0 3.50023
1.50022 -1.55041e-17 3.00052 1.2501 0 3.00055 2.00039 0 3.00045 2.00025
6.77626e-21 3.50028 2.50024 -6.77626e-21 3.50026 2.50027 -2.15688e-17 3.00027 2.25034 0
3.00035 3.0002 -1.69407e-21 3.00018 3.00017 9.52404e-18 3.50018 3.50015 3.38813e-21 3.50016
3.50018 0 3.00016 4.00014 -6.90484e-17 3.50015 4.41401 8.47033e-22 3.50003 4.5
2.24255e-22 3 4.5 0 3 4.00015 0 3.00016 5 0
4 -5 -4.56216e-21 5 -4.00031 0 5 -3.00034 1.35525e-20 5.00001
-3.0004 2.50722e-18 4.5 -3.00052 0 4 -3.50051 -3.61446e-17 4 5
-5.3804e-23 4 4.5 0 4 4.01315 -1.98523e-22 4 6 -1.77009e-22
5 7 8.49641e-23 5 8 -2.44576e-22 5 9 -1.79481e-22 5
10 -8.26783e-24 5 11 3.71066e-23 5 12 7.40495e-23 5 13
-7.46022e-23 5 13 -3.57483e-23 5 14 -2.11758e-22 5 15 0
5 -5 1.00974e-28 5 0.5 0 4 0.499998 0 4
0.5 0 4 1 -1.61559e-27 4 1 -1.61559e-27 4 1.5
-5.24977e-23 4 1.5 0 4 2.00017 -3.38813e-21 4.00019 2 -4.13239e-17
4.5 2.5 0 4.5 2.50016 0 4.00018 3 0 4
3 2.76547e-17 4.5 3.5 -2.52435e-29 4.5 3.5 0 4 5
0 5 4 0 4 4 -3.3529e-17 4.5 4 1.26218e-29
5 6 3.15544e-30 5 7 0 5 8 0 5
9 3.9443e-31 5 10 0 5 11 -9.86076e-32 5 12
-4.93038e-32 5 13 1.2326e-32 5 -5 -1.50785e-21 6 -4.00028 0
6 -3 -2.11758e-22 6 -2 -2.11758e-22 5 -2.50019 3.01205e-17 5.00003
-2 0 6 -1 -2.35712e-17 5 -1.5 1.39417e-17 5 -1
8.47033e-22 6 -1.46255e-06 1.4195e-17 5 -0.500002 2.00704e-17 5 -4.41788e-07 4.23516e-22
6 1 1.75768e-17 5 0.499999 -4.03442e-18 5 1 0 6
2 -1.6111e-22 6 1.5 -2.46127e-23 5 14 -2.49584e-23 6 15
6.49997e-23 6 -5 0 6 2 -1.00974e-28 6 2 -6.34437e-17
5 1.5 4.03897e-28 5 3 5.04871e-29 6 3 -2.10964e-17 5
2.5 0 5 4 -1.26218e-29 6 3.5 2.52435e-29 5 5
-6.31089e-30 6 6 -3.15544e-30 6 7 1.57772e-30 6 8 7.88861e-31
6 9 -3.9443e-31 6 10 0 6 11 0 6
12 -2.46519e-32 6 13 1.2326e-32 6 14 0 6 15
-1.52652e-17 6 -5 -6.17313e-21 7 -4.00025 1.35525e-20 7 -3 6.2323e-23
7 -3 5.04871e-29 7 -3 1.09771e-22 7 -2 4.23516e-22 7
-1 -4.23516e-22 7 -6.20385e-08 0 7 1 0 7 2
0 7 -5 -2.52435e-29 7 -3 0 7 2 5.04871e-29
7 3 2.52435e-29 7 4 0 7 5 6.31089e-30 7
6 -3.15544e-30 7 7 0 7 8 3.9443e-31 7 9
0 7 10 -9.86076e-32 7 11 0 7 12 1.2326e-32
7 13 0 7 14 0 7 15 -1.08141e-17 7
-5 1.7064e-23 8 -4 0 8 -3 1.32733e-22 7 -3
0 8 -2 0 8 -1 -4.23516e-22 8 -4.65216e-09 0
8 1 0 8 2 0 8 -5 7.6473e-18 8
2 -2.52435e-29 8 3 0 8 4 0 8 5
-6.31089e-30 8 6 1.57772e-30 8 7 0 8 8 3.9443e-31
8 9 0 8 10 9.86076e-32 8 11 0 8
12 1.2326e-32 8 13 0 8 14 0 8 15
0 8 1.98072e-05 -1.47443e-18 0.0155232 -6.78597e-10 6.46235e-27 0 -0.015625 1.89557e-19
0 -0.015607 0 0.0155222 0.015625 6.46235e-27 0 0.984621 -2.64274e-19 1.00027
1.00023 6.77626e-21 1.00025 1.00022 0 0.984609 0.984609 0 0.984627 -0.875589
0 0.875281 -1.00051 0 0.875232 -0.000168606 -7.04731e-19 0.984785 -0.0157783 0
0.984748 -0.0157891 0 1.0004 0.984964 -4.87891e-19 0 0.984951 0 0.0152386
0.0154375 2.71051e-20 0.984823 0.500347 0 0 0.484697 -1.40946e-18 0 0.484699
-2.71051e-20 0.0154073 0.50035 2.71051e-20 0.0153902 6.85113e-05 -6.74075e-34 0.497067 0.00351742 0
0.497921 0.00351735 -6.16298e-33 0.497919 0.500935 -5.29396e-23 0.500103 0.500923 1.81265e-19 0.484474
0.485343 0 0.48448 0.485354 -5.29396e-23 0.500107 -1.0005 0 1.12529 -0.875598
0 1.12535 -0.847656 0 1.75035 -0.875511 -8.67701e-18 1.75034 -1.00046 8.00954e-18
1.75027 -1.00043 4.23516e-22 2.00034 -0.000137327 0 2.00046 -0.000174407 -6.77626e-21 1.87558
-0.125203 0 1.87555 -0.125185 -4.78404e-18 2.0005 1.00026 0 1.03153 0.969013
6.77626e-21 1.00028 0.969038 8.80914e-19 1.03156 0.0614109 0 1.87557 -0.0314004 0
1.00037 -0.0314207 0 1.03167 -0.750309 -7.75205e-18 1.87547 -0.750381 0 1.75039
0.124961 0 1.87556 1.00049 5.54298e-18 1.87554 0.875516 1.35525e-20 1.87556 0.875507
0 2.00058 -0.442444 -4.23516e-22 0.0622773 -0.437776 0 0.0622817 -0.437709 -2.11758e-22
0.0234443 -0.0040072 3.0527e-19 0.500638 -0.000168277 0 0.500646 -2.94017e-06 0 0.497049
-0.00322378 0 0.496279 -0.492468 -5.29396e-23 0.500175 -0.469803 -2.11758e-22 0.500181 -0.469837
0 0.468841 -0.501073 0 0.468827 -0.501061 2.64698e-23 0.480492 -0.000101869 -1.47052e-19
0.504366 -0.00397949 -2.01948e-28 0.504355 -0.501028 0 0.522018 -0.501022 0 0.531434
-0.469779 0 0.531436 0.00364412 0 0.500984 0.00375691 0 0.504522 0.485366
0 0.514811 0.485366 0 0.515734 0.500948 0 0.515729 0.500947 -1.65436e-24
0.515118 -0.500391 3.52366e-19 0.0622223 -0.437669 4.23516e-22 0 -0.500304 0 0
-0.501042 0 0.500173 -0.50037 -5.42101e-20 1.00067 -0.43782 0 1.00061 -0.437881
5.42101e-20 0.938131 -0.500433 0 0.93818 0.500963 -5.14996e-19 0.984633 0.485343 0
0.984612 0.485309 -1.35525e-20 1.00027 0.500901 2.71051e-20 1.00034 -2.0003 0 0
-2.00031 0 0.249984 -1.75035 -6.77626e-21 0.249978 -1.75034 -2.12097e-18 0 -1.12549
1.69407e-21 0.0567975 -1.12551 -3.38813e-21 0.124883 -1.1051 0 0.12486 -2.00053 -4.06576e-19
0.750021 -2.00052 0 1.00001 -1.75043 0 1 -1.75044 1.35525e-20 0.750004
1.03145 0 1.00022 1.03142 0 0.968935 1.0002 -6.77626e-21 0.968969 -1.12548
0 0 -1.12547 0 0.875178 -1.12544 0 1.00021 -0.562867 -4.63496e-18
0 -0.562923 0 0.0621015 -0.875622 1.40946e-18 0.499992 -0.875629 -1.40946e-18 0.43746
-0.875614 0 0.37493 -1.00058 -1.35525e-20 0.374847 -1.0006 -6.77626e-21 0.499982 -0.501071
0 0.459931 -0.501067 7.5513e-19 0.437262 -0.563478 0 0.437296 -0.563493 0
0.500081 1.875 7.07317e-18 0 1.875 0 0.125 2 -9.02096e-18 0.875
1.875 -1.00974e-28 0.875 1.875 0 1 -0.501021 2.64698e-23 0.532727 0.516516
0 0.515723 0.516516 -1.65436e-24 0.515322 -1.00059 3.04932e-18 0.625092 -0.875599 0
0.625021 -0.875605 0 0.562503 -0.563001 -5.42101e-20 0.938195 -0.562935 0 1.00068
-0.501004 6.60686e-20 0.562681 -0.563465 6.77626e-21 0.562645 0.515999 -2.71051e-20 0.0153741 0.515996
1.89735e-19 0 1.00002 0 0.499997 1.00004 6.91179e-19 0.484354 0.984415 3.38813e-21
0.484354 0.984397 0 0.499997 0.516504 -1.57919e-19 0.500096 0.516494 -4.23516e-22 0.484467
0.984397 0 0.515625 1.00002 0 0.515625 0.516455 3.25261e-19 1.00046 0.516567
-2.71051e-20 0.984687 -0.000486907 -2.11758e-22 0.751673 0.0150628 0 0.751704 0.0151069 -2.11758e-22
0.736039 -0.000466544 1.79846e-18 0.73608 0.250631 -1.05879e-22 0.499142 0.234996 0 0.4991
0.235042 0 0.51471 0.250685 1.77115e-18 0.514757 0.234396 1.59578e-18 0.751475 0.250021
2.64698e-23 0.751472 0.250098 0 0.735925 0.234416 0 0.735938 0.500674 0
1.03185 0.469677 2.71051e-20 1.00028 0.46947 -2.71051e-20 1.0318 -0.000487113 0 0.767278
0.0150573 0 0.767313 0.249988 1.48893e-23 0.985961 0.249988 0 0.985377 0.234363
0 0.98538 0.234363 8.27181e-25 1.00097 0.234889 9.09899e-24 1.00097 0.250006 2.3521e-18
0.76703 0.234384 0 0.767027 0.249988 -2.64698e-23 1.00096 0.250614 0 0.249941
0.237135 1.32349e-23 0.249938 0.250669 1.98523e-23 0.26291 0.484921 5.42101e-19 0.249634 0.484944
-5.42101e-20 0.265243 0.500584 0 0.265233 0.500562 5.42101e-20 0.249623 0.25266 0
[...]
POINT_DATA 9879
FIELD attributes 1
U 3 9879 float
24.6055 -0.00240274 0.525333 25 0 0 25 0 0 24.351 -0.0339829
1.20838 24.0041 -8.95902e-06 1.62881 25 0 0 24.6055 -0.00240274 0.525333
24.6117 -0.0037535 0.540749 25 0 0 24.6186 -0.00418328 0.536668 25
0 0 24.6232 -0.00443794 0.52856 25 0 0 24.6278 -0.00464217
0.519417 25 0 0 24.633 -0.0047659 0.509635 25 0 0
24.6383 -0.00482023 0.499514 25 0 0 24.6432 -0.00485141 0.489461 25
0 0 24.6486 -0.00485769 0.478338 24.6517 -0.004851 0.472167 24.8591 -0.00781873
0.19643 25 0 0 25 0 0 25 0 0
25 6.56871e-13 -8.77963e-11 25 0 0 25 0 0 25.0003
5.2737e-06 -0.000779172 25.2121 -1.93236e-05 -0.0846925 25.3155 -0.000392116 -0.127812 25 0
0 25 0 0 25.0037 -9.17118e-05 0.000226363 27.6369 -0.0624045 0.149291
27.5916 -0.0645795 0.159394 24.6626 -0.0674697 0.103035 24.7097 -0.0771349 0.23263 24.7055
-0.0725788 0.229803 25 0 0 25 0 0 24.8696 -0.0672553
0.753788 24.8659 -0.0854247 1.67904 24.8191 -0.0897712 1.59974 25 0 0
25 0 0 24.8734 -0.0838023 1.23081 24.3161 -0.0832358 2.84834 24.1358
-0.0319187 1.59159 25 0 0 25 0 0 25 0
0 25 0 0 24.1996 -0.0377333 1.48362 24.1996 -0.0377333 1.48362
24.6055 -0.00240274 0.525333 24.0041 -8.95585e-06 1.62881 24.6055 -0.00240274 0.525333 24.8869
0.0125607 0.566289 24.8082 0.00497534 0.381101 24.7929 0.00522243 0.37542 24.787 0.00542697
0.366225 24.7837 0.00552319 0.35964 24.7814 0.00553756 0.355215 24.7795 0.00554858 0.351958
24.778 0.00551505 0.349515 24.7768 0.00544942 0.347474 24.7753 0.00540269 0.346766 24.7744
0.00539238 0.347059 25 0 0 25 0 0 25 3.84665e-13
-7.00901e-11 25 5.88878e-13 -1.11958e-10 24.8216 0.00222906 -0.0940994 24.8207 0.00213917 -0.0748273
24.7458 0.00322871 -0.0830749 24.7422 0.00335254 -0.0993858 23.0951 0.0648485 2.06945 23.2996
0.0578889 1.88083 23.2863 0.061944 2.06546 23.0779 0.0694633 2.28209 23.0681 0.0676722
2.19104 23.018 0.0737732 6.94896 23.1513 0.110555 8.71666 23.6341 0.180591 6.43255
24.157 0.138629 3.99875 23.925 0.113063 4.00638 23.6356 0.0101329 2.35577 23.0818
0.00777834 5.2764 23.6437 0.083906 4.17359 24.4887 0.0616919 2.19599 24.4077 0.026239
1.56156 23.6637 0.00605978 2.26109 24.3384 0.0282999 1.5424 24.2928 0.0286074 1.53311
23.7077 0.00317526 2.19465 23.6637 0.00605977 2.26109 24.3543 0.0233784 1.31364 24.8869
0.0125607 0.566289 24.8869 0.0125607 0.566289 25.0232 0.0071217 0.298067 25.0226 0.0040099
0.166177 25.0183 0.00241049 0.11899 25.0148 0.00284577 0.110662 25.0131 0.00307006 0.107984
25.011 0.00325159 0.107634 25.0083 0.00337966 0.108371 25.0052 0.00347385 0.109722 25.0021
0.00348844 0.111529 24.9991 0.00347458 0.113495 24.9965 0.00347196 0.116328 24.9953 0.00347698
0.118206 25 0 0 25 0 0 25 1.94128e-13 -2.75723e-11
24.8794 0.00115679 0.0559179 24.9071 0.00076869 0.0279995 24.9199 0.000672732 0.0397558 24.9105
0.000799043 0.0513691 24.8111 0.00372856 0.277648 24.8139 0.0034247 0.253895 24.8769 0.00204969
0.18263 24.8785 0.00230042 0.209036 24.8218 0.0040014 0.306187 24.8841 0.00612324 0.464912
24.9161 0.00342929 0.313264 24.9279 0.00374906 0.337348 24.899 0.00676206 0.500921 24.8899
0.0067315 0.499093 24.9138 0.00925323 0.613349 24.9486 0.00500426 0.410098 24.9561 0.00573541
0.438534 24.9251 0.0106013 0.668862 24.952 0.0121542 0.627114 24.9522 0.0154438 0.730004
24.9722 0.00916761 0.485166 24.9865 0.00531965 0.331088 24.952 0.0121542 0.627113 24.9412
0.0141326 0.624779 24.9426 0.0139973 0.619485 25.0237 0.00764781 0.327748 25.0237 0.00764781
0.327748 24.9265 0.0156074 0.640999 25 1.18863e-13 5.91214e-12 24.9992 8.35273e-06 0.000418127
24.9989 1.0508e-05 0.000157847 24.9988 1.08939e-05 -0.000257323 24.9996 4.90127e-06 -0.00020984 25
1.61715e-13 -6.89189e-12 25.0217 0.00235934 0.105266 25.0218 0.00126598 0.0662176 25.0218 0.00126598
0.0662176 25.0258 0.00134997 0.0594338 25.0287 0.00146783 0.0601128 25.03 0.00156199 0.0610369
25.0301 0.00162542 0.0613094 25.0298 0.0016698 0.0611258 25.0294 0.00170429 0.0609337 25.0291
0.0017338 0.0608262 25.0288 0.00175638 0.0608335 25.0287 0.00176705 0.0608564 25.0289 0.00176875
0.0608284 25 0 0 25 0 0 24.9591 0.000326153 0.0351056
24.9651 0.000254639 0.0260426 24.9733 0.000241152 0.0342655 24.9566 0.000393091 0.0459637 24.9512
0.000716885 0.0912537 24.952 0.000632571 0.0804148 24.9675 0.000567401 0.0812731 24.9565 0.000778955
0.102099 24.9662 0.000959951 0.126028 24.9828 0.00047128 0.0763793 24.9898 0.00054806 0.0868901
24.9772 0.00113625 0.144247 24.9704 0.00110597 0.141436 24.9865 0.00133368 0.158928 24.9967
0.000640939 0.0948388 25.0028 0.00075402 0.101148 24.9941 0.00159379 0.167057 24.9893 0.00157511
0.171641 25.003 0.00195723 0.174643 25.009 0.00096796 0.106633 25.015 0.0012095 0.109895
25.013 0.00253024 0.182192 25.0189 0.00150887 0.109546 25.0202 0.00201052 0.110689 25.0221
0.00420161 0.183821 25.0221 0.00420161 0.183821 25.0196 0.00310832 0.182575 25.0218 0.00126598
0.0662176 25 5.7598e-14 6.88099e-12 24.9996 6.03738e-06 0.000724133 24.9988 1.51036e-05 0.0020377
24.9979 1.9381e-05 0.0023082 24.997 2.27889e-05 0.00193745 24.9983 1.45491e-05 0.000833622 25.0218
0.00126598 0.0662176 25.0202 0.00120287 0.0751475 25.0186 0.000828971 0.071203 25.0242 0.000538266
0.0291845 25.0262 0.000669598 0.0280343 25.0271 0.000770475 0.0266058 25.0277 0.000845143 0.0252591
25.0281 0.000901876 0.024213 25.0285 0.000944161 0.0235781 25.0288 0.000978782 0.0232791 25.0291
0.00100302 0.0231845 25.0291 0.00100302 0.0231845 25.0296 0.00101753 0.0232718 25.0301 0.00102309
0.0233564 25 0 0 24.9881 0.000229044 0.0426873 24.9881 0.000229044 0.0426873
24.9881 0.000229044 0.0426873 24.992 0.000280899 0.051186 24.992 0.000280898 0.051186 24.9969
0.000324445 0.0579734 24.9969 0.000324445 0.0579734 25.0021 0.000377949 0.062996 25.0051 0.000238308
0.0423222 25.009 0.000277586 0.0446058 25.007 0.000436492 0.0667242 25.0116 0.000536339 0.0692117
25.0125 0.00032774 0.0459043 25.0155 0.000419005 0.0469453 25.0156 0.000670504 0.0708652 25.0213
0.000382373 0.0296824 25.0185 0.000818874 0.0710964 25.0177 0.000463733 0.0456642 25.0176 0.000292714
0.0309143 25.0242 0.000538266 0.0291845 25.0262 0.000669598 0.0280343 25.0271 0.000770475 0.0266058
25.0277 0.000845143 0.0252591 25.0281 0.000901876 0.024213 25.0285 0.000944161 0.0235781 25.0288
0.000978782 0.0232791 25.0291 0.00100302 0.0231845 25 2.24369e-14 2.97714e-12 24.9999 4.69366e-06
0.000625016 24.9997 1.06187e-05 0.00156431 24.9974 3.00884e-05 0.00485376 24.9979 2.29028e-05 0.00323581
24.9997 1.92514e-05 0.00319406 24.9964 5.17298e-05 0.00986683 24.9964 4.14709e-05 0.00722757 25.0002
3.02548e-05 0.00569897 24.9972 8.2238e-05 0.017007 24.9959 6.90318e-05 0.0137503 25.0017 4.42293e-05
0.00882967 25.001 0.000118508 0.0241886 24.9982 0.000105651 0.0218124 25.0047 6.06317e-05 0.011823
25.0087 7.9376e-05 0.0139276 25.0035 0.000144954 0.0285201 25.0292 0.000487268 0.0128946 25.0294
0.00049297 0.0129514 25 0 0 25.0087 7.9376e-05 0.0139276 25.0069 0.000157385
0.0290922 25.0035 0.000144954 0.0285201 25.0131 0.000102754 0.0149273 25.0128 0.000212655 0.0314521
25.0099 0.000192183 0.0323097 25.017 0.000136287 0.0151194 25.0154 0.000278954 0.0336117 25.0202
0.000185682 0.0149394 25.0228 0.000248207 0.014433 25.0246 0.000312154 0.0136906 25.0259 0.000362358
0.0131062 25.0269 0.000396416 0.012804 25.0276 0.000421641 0.0126804 25.0281 0.000440669 0.0126611
25.0285 0.000459058 0.0127082 25.0288 0.000475374 0.01279 25.0292 0.000487268 0.0128946 25.0294
0.00049297 0.0129514 25 8.6692e-15 7.5772e-13 25.0001 4.02679e-06 0.000353175 25.0002 8.87767e-06
0.000837547 25.0002 8.87767e-06 0.000837547 25.0002 8.87767e-06 0.000837547 25.0006 1.55847e-05 0.00160113
25.0016 2.36045e-05 0.00269365 25.0033 3.33393e-05 0.00401076 25.0059 4.46481e-05 0.00527362 25.0093
5.74053e-05 0.00617511 25 0 0 25.0002 8.87767e-06 0.000837547 25.0093 5.74053e-05
0.00617511 25.013 7.26399e-05 0.00660111 25.0165 9.24608e-05 0.00667738 25.0194 0.000118518 0.00653669
25.0218 0.000150676 0.00623689 25.0237 0.000183559 0.00590181 25.0251 0.000211362 0.00562047 25.0261
0.000233008 0.00538616 25.0268 0.000251232 0.00516482 25.0274 0.000267139 0.00497192 25.0278 0.000281591
0.00482703 25.0282 0.000294051 0.00472906 25.0286 0.000304066 0.00467392 25.0289 0.000309091 0.00465155
25 1.10115e-06 0 25.0001 3.89438e-06 0 25.0002 8.87767e-06 0.000837547 25.0003
8.47715e-06 0 25.0009 1.46473e-05 0 25.0019 2.18835e-05 0 25.0037 3.05333e-05
0 25.0062 4.05115e-05 0 25.0094 5.17659e-05 0 25 1.10114e-06 0
25.0094 5.17659e-05 0 25.0129 6.48652e-05 0 25.0162 8.12966e-05 0 25.0191
0.000101746 0 25.0215 0.000125921 0 25.0234 0.000150502 0 25.0248 0.000172191
0 25.0258 0.000189789 0 25.0266 0.000204521 0 25.0272 0.000216848 0
25.0277 0.000227305 0 25.0281 0.000235822 0 25.0285 0.00024227 0 25.0288
0.000245578 0.00111364 27.637 -0.0623997 0.149269 25 0 0 25 0
0 27.6759 -0.0601658 0.138725 25 0 0 24.1155 0.182351 5.4308
24.0108 0.182942 5.38719 23.6873 0.19376 5.60816 23.8315 0.191541 5.62632 24.7492
0.00360655 -0.156363 24.8365 0.00229683 -0.133079 22.9829 0.06851 2.17006 22.9981 0.0660505
2.05797 23.0926 0.0630498 1.97883 25 0 0 24.6661 -0.0679966 0.103926
22.9714 0.0709621 2.28315 25 0 0 25 0 0 25.3841
-0.0894392 0.193534 25.333 -0.0890869 0.189792 22.1639 0.0467571 4.99497 22.6908 0.0468475
5.27277 22.6902 0.0468463 5.2729 23.4326 -0.204576 11.2571 23.5288 -0.227859 10.8113
23.5788 -0.219104 10.9105 23.481 -0.194907 11.3448 24.82 0.00207036 -0.0600239 24.7525
0.00300203 -0.0530242 24.851 0.00142728 0.039796 24.8558 0.00135478 0.0343886 24.8815 0.0010362
0.0191514 24.9075 0.000762873 0.027567 24.8164 0.00315511 0.232611 24.7741 0.00417925 0.282956
24.7789 0.00360696 0.234317 24.814 0.00286094 0.200695 24.309 0.158912 4.87892 24.1909
0.178219 5.36099 24.3443 0.153707 4.79664 24.7745 0.00447512 0.306877 23.1256 0.0602791
1.86237 23.324 0.0539076 1.70024 24.8565 0.00141734 0.0610309 24.8344 0.00168385 0.0586768
24.775 0.00478426 0.331551 24.8632 0.00835243 0.578081 24.8516 0.00791239 0.554421 24.8713
0.00607543 0.459984 26.4764 -0.0104565 -0.229258 26.4978 -0.0107012 -0.230738 25.5638 -0.00402974
-0.0868552 22.6856 0.0479024 4.46064 23.1843 0.0485134 4.74844 22.153 0.0467552 4.98921
21.6587 0.046527 4.74597 24.4414 0.0100857 -1.30884 24.3485 0.010534 -1.45219 24.5947
0.00804396 -1.55177 24.6644 0.00793971 -1.3611 24.5945 0.00867516 -1.32148 23.6225 0.042347
4.1713 23.0438 0.0409908 3.86181 24.3377 0.0114157 -1.20333 24.2778 0.0120621 -1.18123
24.1388 0.012945 -1.32254 23.722 0.0489963 5.0299 24.2427 0.0436364 4.53105 23.3995
-0.165954 11.7064 23.3944 -0.164137 11.7291 23.3482 -0.174324 11.6547 23.3515 -0.175506
11.6392 26.2109 -0.00740333 -0.210881 25 0 0 25 0 0
24.4766 0.00991612 -1.25462 24.2291 0.0132563 0.069011 24.0895 0.0167057 0.162874 23.971
0.0192513 0.11518 24.1475 0.0150491 0.0151138 24.0213 0.128081 4.77446 23.9873 0.126724
4.74487 24.0147 0.121165 4.52759 24.0517 0.121766 4.51816 25 0 0
25.0164 8.92157e-05 -0.0121388 25.0277 0.000126905 -0.0209381 25 0 0 25.068
4.73125e-05 -0.0256483 25.1495 0.000103999 -0.0563939 25.1597 8.41363e-05 -0.0610157 24.996 0.000150727
-0.0251093 24.986 0.000175847 -0.0239237 24.9753 0.000292803 -0.0349296 24.991 0.000250313 -0.0391178
23.6844 0.189189 5.40131 22.4933 0.216271 5.77126 22.8821 0.206239 5.73916 25
0 0 24.8914 0.00151313 -0.108924 24.8755 0.00151255 -0.0837263 25 0
0 25.9759 -0.00500928 -0.182276 24.9729 0.00240554 -0.31142 25.039 0.00197411 -0.322476
25.1073 0.00138175 -0.298449 25.0848 0.000921388 -0.200175 24.9995 0.00148115 -0.214743 24.7295
0.00736235 -1.36034 24.8952 0.0058909 -1.3584 24.9439 0.00553522 -1.01639 24.659 0.00827072
-0.956131 25 0 0 24.8391 -0.0681949 0.783261 23.0633 -0.0396369 10.1933
23.0774 -0.0421776 10.7804 23.164 0.139849 9.32924 24.2731 0.0121259 -1.17528 23.3058
-0.184711 11.5816 23.3079 -0.185467 11.5711 24.9244 0.00193666 -0.202617 24.8605 0.0031846
-0.280173 24.9057 0.00296449 -0.310096 24.2986 0.0116996 -0.0501299 24.3524 0.0104526 0.00485825
24.1634 0.0136066 -1.03758 24.4314 0.0107185 -0.825608 25.2845 -0.0886854 0.186013 25
0 0 23.669 -0.308426 7.62314 23.7774 -0.292662 7.1402 23.7462 -0.296663
7.23409 23.6309 -0.313022 7.73804 23.389 -0.21421 11.1701 23.4844 -0.236504 10.7124
23.5057 -0.32836 8.27323 23.5406 -0.324934 8.1654 24.0781 0.12471 4.58327 24.0534
0.129808 4.80242 20.1188 0.0984615 3.85459 20.04 0.101348 4.14219 19.7411 0.0990468
4.2274 19.8301 0.0963425 3.9274 25.7547 -0.099099 13.3274 26.1348 -0.0975599 13.4721
26.0425 -0.0845057 14.0839 25.605 -0.0844611 13.8713 20.8605 0.148621 9.13056 21.1484
0.152334 9.36557 20.952 0.150012 9.97489 20.5779 0.14588 9.68658 24.1079 0.108719
4.04354 23.9848 0.119003 4.45812 24.0473 0.106328 3.98604 20.3998 0.0998919 3.7697
20.3301 0.102919 4.04349 23.2953 0.103185 3.89964 23.2922 0.103396 3.90789 23.2457
0.10148 3.81891 23.319 0.0968009 3.63576 23.3208 0.0968331 3.6375 21.3567 0.154203
8.83115 21.1175 0.150717 8.61535 23.3745 0.0977568 3.68758 26.6333 -0.153927 4.78738
26.7643 -0.152265 4.79103 26.6192 -0.159706 5.14247 25.1178 -0.163899 4.06015 25.0514
-0.173658 4.40767 24.997 -0.173107 4.33598 25.0636 -0.163305 3.9946 26.5968 -0.161134
5.21297 26.4627 -0.162834 5.19886 26.4876 -0.155581 4.77431 24.5339 0.011192 0.563011
24.4615 0.0134951 0.645305 24.4694 0.0121954 0.567026 24.5301 0.0104705 0.509045 24.632
0.00566179 0.219546 24.6294 0.00572977 0.22352 24.5267 0.00773609 0.257044 24.5393 0.00736971
0.233878 24.5227 0.0125621 0.641178 24.4603 0.0148042 0.724155 24.6417 0.0187947 1.01353
24.5978 0.023178 1.18591 24.5703 0.0221397 1.137 24.6124 0.0185243 0.994629 24.3065
0.0115913 0.108732 24.1962 0.0144013 0.194498 24.6798 0.00439043 0.145788 24.5572 0.00684438
0.201064 24.6036 0.00575502 0.152086 29.58 -0.106942 3.58517 29.3376 -0.103408 3.25141
29.4677 -0.0990781 3.01734 29.7312 -0.102401 3.32801 19.1406 0.00979872 -5.2237 19.212
0.012182 -4.49386 18.5275 0.0129701 -4.34439 18.2732 0.0106208 -5.12519 28.4456 -0.03226
-0.997189 28.7347 -0.0321507 -1.41259 29.3606 -0.0401355 -1.01264 28.9171 -0.0395602 -0.664342
25.9459 -0.00362911 -1.42804 25.9854 -0.0040398 -1.45359 26.0245 -0.00442115 -1.42438 19.8504
0.0115684 -4.50316 19.9081 0.00911862 -5.16816 27.9648 -0.0258997 -1.20072 28.1099 -0.0252988
-1.62833 20.1992 0.0955212 3.582 19.9212 0.09361 3.64247 19.3122 0.0143636 -3.90529
18.7441 0.0151549 -3.72176 19.8487 0.0137113 -3.98066 29.191 -0.107632 3.46804 29.4129
-0.11135 3.82098 25.9172 -0.114749 12.7873 26.2674 -0.11227 12.893 26.6163 -0.160886
5.21502 26.7847 -0.152005 4.79161 26.7767 -0.158709 5.22177 25.423 -0.101282 13.1659
25.5981 -0.117926 12.6574 17.1157 0.0659387 3.93904 17.492 0.0693907 3.95826 17.3493
0.0717292 4.30594 17.0098 0.0684886 4.27679 17.0412 0.0669111 4.1158 28.9528 -0.104104
13.3802 28.8852 -0.10463 13.2674 28.0047 -0.103132 13.1402 28.4177 -0.101969 13.414
15.8356 0.0936286 6.87849 15.5989 0.0926683 6.75816 15.8049 0.0906483 6.57955 16.0154
0.0916693 6.67472 25.2337 -0.0851929 13.6531 19.6308 0.201674 8.73468 19.6547 0.19896
8.7794 19.814 0.180284 9.24742 19.6023 0.182045 9.12442 21.4775 0.156248 9.59214
21.2602 0.153582 10.1752 25.9313 -0.00362015 -0.891163 25.6832 -0.00103533 -1.14341 25.7805
-0.00190928 -1.32104 26.1892 -0.00602537 -1.3015 26.2749 -0.00697102 -1.10165 22.1052 0.0530932
0.551768 21.8225 0.0592942 0.82289 21.513 0.0581709 0.71242 21.8449 0.0523943 0.417497
23.5963 0.0248214 -0.272344 23.5213 0.0240002 -0.545494 23.9211 0.0181071 -0.532463 23.9341
0.0186031 -0.333951 22.1766 0.0468236 0.174638 22.3887 0.0472946 0.32654 19.3271 0.1198
6.7379 19.7318 0.123085 6.51701 19.7714 0.12665 6.91357 19.3485 0.123319 7.17359
17.7329 0.090348 13.9123 18.3924 0.104883 15.1008 18.6997 0.125943 15.7266 18.1349
0.11627 14.4698 15.6284 0.0956412 7.09612 16.0627 0.0947739 6.97954 15.8662 0.0967549
7.21509 20.4713 0.0968661 3.50951 23.5922 0.0321756 0.691403 23.5096 0.0356861 0.821817
23.362 0.0391558 0.859134 23.4582 0.0352823 0.714159 22.3546 0.0525281 0.645588 22.112
0.058609 0.896811 29.1546 -0.10651 13.2409 29.2407 -0.107465 13.1988 31.8216 -0.117773
6.82841 32.2109 -0.116613 7.47792 31.7505 -0.120388 7.83995 31.4107 -0.121872 7.18846
28.8394 -0.146332 9.19592 28.7505 -0.150148 8.58495 29.0947 -0.146051 8.47727 29.2072
-0.142438 9.09498 23.4056 0.100368 3.7983 23.4065 0.100442 3.80144 23.3403 0.105254
3.99255 19.8542 0.215424 8.43604 19.984 0.216853 8.45442 21.6073 0.157797 9.01485
28.9211 -0.103602 13.4741 28.5973 -0.101131 13.5993 17.6485 0.065342 13.5527 18.1041
0.0787503 14.3992 15.3619 0.0947529 6.93533 19.1446 -0.122141 9.06565 19.1446 -0.122141
9.06565 22.5476 -0.122799 10.6842 24.3405 -0.117814 11.304 23.5937 -0.121448 10.8804
31.2084 0.0678513 14.3684 30.747 0.0708727 14.8848 29.8605 0.0665151 14.2855 30.7463
0.0663247 14.0743 17.3526 0.0778403 13.0907 17.5961 0.102876 13.3852 20.8002 0.189532
9.15446 20.0244 0.195053 9.31243 20.1498 0.188737 9.37894 21.0608 0.18205 9.28266
22.4449 0.032193 12.867 21.943 0.0302053 12.8167 20.4874 0.0547127 11.9207 21.344
0.0514557 12.2135 19.1446 -0.122141 9.06564 17.8788 0.115732 10.5848 16.788 0.114067
9.99887 15.3037 0.120929 9.82272 15.4157 0.108373 9.73146 17.844 0.122673 9.89772
18.003 0.125042 10.3508 17.5124 0.123387 10.625 17.369 0.120893 10.0925 25
0 0 25 0 0 26.5338 -0.0861994 0.22893 26.448 -0.0870644
0.228647 26.6431 -0.146856 4.37991 26.7727 -0.145313 4.38181 25.3742 -0.00441829 -0.00773189
25.9566 -0.0121637 -0.00638642 25 0 0 25 0 0 29.1256
-0.0997618 2.94596 29.2381 -0.0956488 2.73325 28.2039 -0.0319679 -0.696461 28.5665 -0.0385959
-0.423096 28.9974 -0.10378 3.14419 26.787 -0.145144 4.38202 27.4457 -0.0288745 -0.0505288
27.5797 -0.0328029 -0.0172228 25.0486 -0.000532675 -0.00166935 25 0 0 26.4106
-0.00880846 -0.759103 26.4123 -0.00883158 -0.754789 26.082 -0.0053575 -0.65109 26.0815 -0.00535214
-0.651831 27.8268 -0.0261246 -0.878662 17.6534 0.0672999 3.58368 17.1389 0.0645146 3.73687
17.2456 0.0636472 3.5203 16.8558 0.0349842 1.25128 16.872 0.0341158 1.06416 17.0316
0.0345908 1.05083 17.0154 0.0354954 1.22307 18.8433 0.0524363 1.35986 19.1085 0.0560652
1.46439 18.9092 0.0575982 1.71775 18.6428 0.0538136 1.60829 18.8799 -0.123226 8.83348
23.0798 -0.124224 10.5665 27.287 -0.0250669 -0.0785439 23.5579 0.0317438 0.584455 23.6772
0.0290327 0.574814 23.9883 0.0180492 -0.177555 23.7139 0.023831 -0.0895546 22.5963 0.0468137
0.431525 18.8799 -0.123226 8.83347 17.8636 0.0732665 3.99753 17.7127 0.0754667 4.34323
19.7263 0.1197 6.13672 19.3439 0.116543 6.32247 16.2267 0.0928409 6.75948 20.1246
0.137566 8.13362 20.3336 0.141217 8.50812 19.9535 0.138193 8.99279 19.7104 0.134399
8.56185 18.7395 0.11742 10.6383 19.4741 0.125808 11.1366 18.2432 0.124498 9.68949
18.399 0.126721 10.0657 20.1023 0.125464 6.27809 20.1513 0.129082 6.6406 22.4366
0.138498 5.75104 22.534 0.141273 5.89117 22.3979 0.145873 6.24428 22.2892 0.142981
6.09478 21.7595 0.120852 4.76222 21.9611 0.117789 4.5203 22.0007 0.120839 4.71401
21.803 0.124165 4.97275 29.022 -0.105435 13.2732 26.4308 -0.186555 8.79382 26.6757
-0.181682 8.82953 26.6432 -0.177893 9.40977 26.3845 -0.183103 9.36837 28.4164 -0.154297
8.6793 28.4847 -0.150312 9.28437 17.548 0.0562101 13.0673 23.8993 -0.108903 12.4032
24.0337 -0.134688 12.0586 24.1605 -0.127902 12.1916 24.0144 -0.103679 12.5393 22.9743
0.0177759 13.1394 22.7728 0.014675 13.2436 17.3562 0.102893 7.22562 17.8876 0.107075
7.19126 17.7806 0.110478 7.74887 17.4602 0.108656 7.84195 17.1506 0.106604 7.80057
17.2038 0.104397 7.50481 17.7402 0.120372 9.45972 17.2938 0.118525 9.60164 25.689
-0.114656 11.631 26.4329 -0.11047 12.0438 29.0437 -0.128924 11.1128 29.4512 -0.126793
11.0464 29.4641 -0.119648 11.6828 29.0474 -0.121221 11.7453 30.8817 -0.119672 10.7405
30.9628 -0.116263 11.1279 30.6732 -0.117579 11.1782 30.6279 -0.120664 10.8598 23.8647
-0.0437243 15.0282 23.616 -0.0423923 15.0772 21.4966 -0.0169526 14.6487 22.0714 -0.0228926
14.6826 22.504 -0.0161646 14.0946 22.5788 0.0136389 14.6122 21.9287 -0.000213514 14.4049
22.4319 -0.0232758 14.2813 26.5445 -0.10385 12.5283 27.7886 -0.103866 12.9054 27.4914
-0.103875 12.8905 25.8199 -0.10547 12.3896 31.4312 0.0475279 9.62115 31.3736 0.0483542