# vtk DataFile Version 2.0
track0
ASCII
DATASET POLYDATA
POINTS 15780 float
-1.001 -0.05 0.0011
-1.0008 -0.05 0.0011
-1.0006 -0.05 0.0011
-1.0004 -0.05 0.0011
-1.0002 -0.05 0.0011
-1 -0.05 0.0011
-0.9875 -0.05 0.0011
-0.975 -0.05 0.0011
-0.9625 -0.05 0.0011
-0.95 -0.05 0.0011
-0.9375 -0.05 0.00109999
-0.925 -0.05 0.00109999
-0.9125 -0.05 0.00109999
-0.9 -0.05 0.00109999
-0.8875 -0.05 0.00109999
-0.875 -0.05 0.00109999
-0.8625 -0.05 0.00109999
-0.85 -0.05 0.00109999
-0.8375 -0.05 0.00109998
-0.825 -0.0500001 0.00109998
-0.8125 -0.0500001 0.00109998
-0.8 -0.0500001 0.00109998
-0.7875 -0.0500001 0.00109998
-0.775 -0.0500001 0.00109998
-0.7625 -0.0500001 0.00109998
-0.75 -0.0500001 0.00109998
-0.7375 -0.0500001 0.00109997
-0.725 -0.0500001 0.00109997
-0.7125 -0.0500001 0.00109997
-0.7 -0.0500001 0.00109997
-0.6875 -0.0500001 0.00109997
-0.675 -0.0500001 0.00109997
-0.6625 -0.0500001 0.00109997
-0.65 -0.0500001 0.00109996
-0.6375 -0.0500001 0.00109996
-0.625 -0.0500001 0.00109996
-0.6125 -0.0500001 0.00109996
-0.6 -0.0500001 0.00109996
-0.5875 -0.0500001 0.00109996
-0.575 -0.0500001 0.00109996
-0.5625 -0.0500001 0.00109996
-0.55 -0.0500001 0.00109995
-0.5375 -0.0500001 0.00109995
-0.525 -0.0500001 0.00109995
-0.5125 -0.0500001 0.00109995
-0.5 -0.0500001 0.00109995
-0.4875 -0.0500001 0.00109995
-0.475 -0.0500001 0.00109995
-0.4625 -0.0500001 0.00109994
-0.45 -0.0500002 0.00109994
-0.4375 -0.0500002 0.00109994
-0.425 -0.0500002 0.00109994
-0.4125 -0.0500002 0.00109994
-0.4 -0.0500002 0.00109994
-0.3875 -0.0500002 0.00109994
-0.375 -0.0500002 0.00109994
-0.3625 -0.0500002 0.00109993
-0.35 -0.0500002 0.00109993
-0.3375 -0.0500002 0.00109993
-0.325 -0.0500002 0.00109993
-0.3125 -0.0500002 0.00109993
-0.3 -0.0500002 0.00109993
-0.2875 -0.0500002 0.00109993
-0.275 -0.0500002 0.00109993
-0.2625 -0.0500002 0.00109992
-0.25 -0.0500002 0.00109992
-0.2375 -0.0500002 0.00109992
-0.225 -0.0500002 0.00109992
-0.2125 -0.0500002 0.00109992
-0.2 -0.0500002 0.00109992
-0.1875 -0.0500002 0.00109992
-0.175 -0.0500002 0.00109992
-0.1625 -0.0500002 0.00109991
-0.15 -0.0500002 0.00109991
-0.1375 -0.0500002 0.00109991
-0.125 -0.0500002 0.00109991
-0.1125 -0.0500002 0.00109991
-0.1 -0.0500002 0.00109991
-0.0875 -0.0500002 0.00109991
-0.075 -0.0500002 0.00109991
-0.0625 -0.0500002 0.00109991
-0.05 -0.0500003 0.00109991
-0.0375 -0.0500003 0.0010999
-0.025 -0.0500003 0.0010999
-0.0125 -0.0500003 0.0010999
2.10607e-13 -0.0500003 0.0010999
0.0125 -0.0500003 0.0010999
0.025 -0.0500003 0.0010999
0.0375 -0.0500003 0.0010999
0.05 -0.0500003 0.0010999
0.0625 -0.0500003 0.0010999
0.075 -0.0500003 0.0010999
0.0875 -0.0500003 0.0010999
0.1 -0.0500003 0.00109989
0.1125 -0.0500003 0.00109989
0.125 -0.0500003 0.00109989
0.1375 -0.0500003 0.00109989
0.15 -0.0500003 0.00109989
0.1625 -0.0500003 0.00109989
0.175 -0.0500003 0.00109989
0.1875 -0.0500003 0.00109989
0.2 -0.0500003 0.00109989
0.2125 -0.0500003 0.00109989
0.225 -0.0500003 0.00109989
0.2375 -0.0500003 0.00109989
0.25 -0.0500003 0.00109989
0.2625 -0.0500003 0.00109988
0.275 -0.0500003 0.00109988
0.2875 -0.0500003 0.00109988
0.3 -0.0500003 0.00109988
0.3125 -0.0500003 0.00109988
0.325 -0.0500003 0.00109988
0.3375 -0.0500003 0.00109988
0.35 -0.0500003 0.00109988
0.3625 -0.0500003 0.00109988
0.375 -0.0500003 0.00109988
0.3875 -0.0500003 0.00109988
0.4 -0.0500004 0.00109988
0.4125 -0.0500004 0.00109988
0.425 -0.0500004 0.00109988
0.4375 -0.0500004 0.00109988
0.45 -0.0500004 0.00109988
0.4625 -0.0500004 0.00109988
0.475 -0.0500004 0.00109988
0.4875 -0.0500004 0.00109988
0.5 -0.0500004 0.00109988
0.5125 -0.0500004 0.00109988
0.525 -0.0500004 0.00109988
0.5375 -0.0500004 0.00109988
0.55 -0.0500004 0.00109988
0.5625 -0.0500004 0.00109988
0.575 -0.0500004 0.00109987
0.5875 -0.0500004 0.00109987
0.6 -0.0500004 0.00109987
0.6125 -0.0500004 0.00109987
0.625 -0.0500004 0.00109987
0.6375 -0.0500004 0.00109987
0.65 -0.0500004 0.00109987
0.6625 -0.0500004 0.00109987
0.675 -0.0500004 0.00109987
0.6875 -0.0500004 0.00109987
0.7 -0.0500004 0.00109987
0.7125 -0.0500004 0.00109987
0.725 -0.0500004 0.00109987
0.7375 -0.0500004 0.00109987
0.75 -0.0500004 0.00109987
0.7625 -0.0500004 0.00109987
0.775 -0.0500004 0.00109987
0.7875 -0.0500004 0.00109987
0.8 -0.0500004 0.00109987
0.8125 -0.0500004 0.00109987
0.825 -0.0500004 0.00109987
0.8375 -0.0500004 0.00109987
0.85 -0.0500004 0.00109987
0.8625 -0.0500004 0.00109987
0.875 -0.0500004 0.00109987
0.8875 -0.0500004 0.00109987
0.9 -0.0500004 0.00109987
0.9125 -0.0500005 0.00109988
0.925 -0.0500005 0.00109988
0.9375 -0.0500005 0.00109988
0.95 -0.0500005 0.00109988
0.9625 -0.0500005 0.00109988
0.975 -0.0500005 0.00109988
0.9875 -0.0500005 0.00109988
1 -0.0500005 0.00109988
1.0125 -0.0500005 0.00109988
1.025 -0.0500005 0.00109988
1.0375 -0.0500005 0.00109988
1.05 -0.0500005 0.00109988
1.0625 -0.0500005 0.00109988
1.075 -0.0500005 0.00109988
1.0875 -0.0500005 0.00109988
1.1 -0.0500005 0.00109988
1.1125 -0.0500005 0.00109988
1.125 -0.0500005 0.00109988
1.1375 -0.0500005 0.00109988
1.15 -0.0500005 0.00109988
1.1625 -0.0500005 0.00109988
1.175 -0.0500005 0.00109988
1.1875 -0.0500005 0.00109988
1.2 -0.0500005 0.00109988
1.2125 -0.0500005 0.00109988
1.225 -0.0500005 0.00109988
1.2375 -0.0500005 0.00109989
1.25 -0.0500005 0.00109989
1.2625 -0.0500005 0.00109989
1.275 -0.0500005 0.00109989
1.2875 -0.0500005 0.00109989
1.3 -0.0500005 0.00109989
1.3125 -0.0500005 0.00109989
1.325 -0.0500005 0.00109989
1.3375 -0.0500005 0.00109989
1.35 -0.0500005 0.00109989
1.3625 -0.0500005 0.00109989
1.375 -0.0500005 0.00109989
1.3875 -0.0500005 0.00109989
1.4 -0.0500005 0.00109989
1.4125 -0.0500005 0.00109989
1.425 -0.0500005 0.00109989
1.4375 -0.0500005 0.0010999
1.45 -0.0500005 0.0010999
1.4625 -0.0500005 0.0010999
1.475 -0.0500005 0.0010999
1.4875 -0.0500005 0.0010999
1.5 -0.0500006 0.0010999
1.5125 -0.0500006 0.0010999
1.525 -0.0500006 0.0010999
1.5375 -0.0500006 0.0010999
1.55 -0.0500006 0.0010999
1.5625 -0.0500006 0.0010999
1.575 -0.0500006 0.0010999
1.5875 -0.0500006 0.0010999
1.6 -0.0500006 0.0010999
1.6125 -0.0500006 0.00109991
1.625 -0.0500006 0.00109991
1.6375 -0.0500006 0.00109991
1.65 -0.0500006 0.00109991
1.6625 -0.0500006 0.00109991
1.675 -0.0500006 0.00109991
1.6875 -0.0500006 0.00109991
1.7 -0.0500006 0.00109991
1.7125 -0.0500006 0.00109991
1.725 -0.0500006 0.00109991
1.7375 -0.0500006 0.00109991
1.75 -0.0500006 0.00109991
1.7625 -0.0500006 0.00109992
1.775 -0.0500006 0.00109992
1.7875 -0.0500006 0.00109992
1.8 -0.0500006 0.00109992
1.8125 -0.0500006 0.00109992
1.825 -0.0500006 0.00109992
1.8375 -0.0500006 0.00109992
1.85 -0.0500006 0.00109992
1.8625 -0.0500006 0.00109992
1.875 -0.0500006 0.00109992
1.8875 -0.0500006 0.00109992
1.9 -0.0500006 0.00109992
1.9125 -0.0500006 0.00109993
1.925 -0.0500006 0.00109993
1.9375 -0.0500006 0.00109993
1.95 -0.0500006 0.00109993
1.9625 -0.0500006 0.00109993
1.975 -0.0500006 0.00109993
1.9875 -0.0500006 0.00109993
2 -0.0500006 0.00109993
2.0125 -0.0500006 0.00109993
2.025 -0.0500006 0.00109993
2.0375 -0.0500006 0.00109993
2.05 -0.0500006 0.00109993
2.0625 -0.0500006 0.00109993
2.075 -0.0500006 0.00109994
2.0875 -0.0500006 0.00109994
2.1 -0.0500006 0.00109994
2.1125 -0.0500006 0.00109994
2.125 -0.0500006 0.00109994
2.1375 -0.0500006 0.00109994
2.15 -0.0500006 0.00109994
2.1625 -0.0500006 0.00109994
2.175 -0.0500007 0.00109994
2.1875 -0.0500007 0.00109994
2.2 -0.0500007 0.00109994
2.2125 -0.0500007 0.00109994
2.225 -0.0500007 0.00109995
2.2375 -0.0500007 0.00109995
2.25 -0.0500007 0.00109995
2.2625 -0.0500007 0.00109995
2.275 -0.0500007 0.00109995
2.2875 -0.0500007 0.00109995
2.3 -0.0500007 0.00109995
2.3125 -0.0500007 0.00109995
2.325 -0.0500007 0.00109995
2.3375 -0.0500007 0.00109995
2.35 -0.0500007 0.00109995
2.3625 -0.0500007 0.00109995
2.375 -0.0500007 0.00109995
2.3875 -0.0500007 0.00109996
2.4 -0.0500007 0.00109996
2.4125 -0.0500007 0.00109996
2.425 -0.0500007 0.00109996
2.4375 -0.0500007 0.00109996
2.45 -0.0500007 0.00109996
2.4625 -0.0500007 0.00109996
2.475 -0.0500007 0.00109996
2.4875 -0.0500007 0.00109996
2.5 -0.0500007 0.00109996
2.5125 -0.0500007 0.00109996
2.525 -0.0500007 0.00109996
2.5375 -0.0500007 0.00109996
2.55 -0.0500007 0.00109996
2.5625 -0.0500007 0.00109997
2.575 -0.0500007 0.00109997
2.5875 -0.0500007 0.00109997
2.6 -0.0500007 0.00109997
2.6125 -0.0500007 0.00109997
2.625 -0.0500007 0.00109997
2.6375 -0.0500007 0.00109997
2.65 -0.0500007 0.00109997
2.6625 -0.0500007 0.00109997
2.675 -0.0500007 0.00109997
2.6875 -0.0500007 0.00109997
2.7 -0.0500007 0.00109997
2.7125 -0.0500007 0.00109997
2.725 -0.0500007 0.00109997
2.7375 -0.0500007 0.00109997
2.75 -0.0500007 0.00109997
2.7625 -0.0500007 0.00109998
2.775 -0.0500007 0.00109998
2.7875 -0.0500007 0.00109998
2.8 -0.0500007 0.00109998
2.8125 -0.0500007 0.00109998
2.825 -0.0500007 0.00109998
2.8375 -0.0500007 0.00109998
2.85 -0.0500007 0.00109998
2.8625 -0.0500008 0.00109998
2.875 -0.0500008 0.00109998
2.8875 -0.0500008 0.00109998
2.9 -0.0500008 0.00109998
2.9125 -0.0500008 0.00109998
2.925 -0.0500008 0.00109998
2.9375 -0.0500008 0.00109998
2.95 -0.0500008 0.00109998
2.9625 -0.0500008 0.00109998
2.975 -0.0500008 0.00109998
2.9875 -0.0500008 0.00109998
3 -0.0500008 0.00109998
3.0125 -0.0500008 0.00109999
3.025 -0.0500008 0.00109999
3.0375 -0.0500008 0.00109999
3.05 -0.0500008 0.00109999
3.0625 -0.0500008 0.00109999
3.075 -0.0500008 0.00109999
3.0875 -0.0500008 0.00109999
3.1 -0.0500008 0.00109999
3.1125 -0.0500008 0.00109999
3.125 -0.0500008 0.00109999
3.1375 -0.0500008 0.00109999
3.15 -0.0500008 0.00109999
3.1625 -0.0500008 0.00109999
3.175 -0.0500008 0.00109999
3.1875 -0.0500008 0.00109999
3.2 -0.0500008 0.00109999
3.2125 -0.0500008 0.00109999
3.225 -0.0500008 0.00109999
3.2375 -0.0500008 0.00109999
3.25 -0.0500008 0.00109999
3.2625 -0.0500008 0.00109999
3.275 -0.0500008 0.00109999
3.2875 -0.0500008 0.00109999
3.3 -0.0500008 0.00109999
3.3125 -0.0500008 0.00109999
3.325 -0.0500008 0.00109999
3.3375 -0.0500008 0.00109999
3.35 -0.0500008 0.0011
3.3625 -0.0500008 0.0011
[...]
POINT_DATA 15780
 FIELD attributes 2
p 1 15780 float
-0.0310978 -0.0311138 -0.0311299 -0.0311459 -0.0311619 -0.031178 -0.0321094 -0.0330332 -0.0339569 -0.0348807 -0.0359011 -0.0369649 -0.0380313 -0.0390976 -0.040164 -0.0411837 -0.0421671 -0.0431319 -0.0440967 -0.0450615 -0.0459746 -0.0468725 -0.047775 -0.0486776 -0.0495801 -0.0504768 -0.0513774 -0.0522789 -0.0531804 -0.0540819 -0.0549828 -0.0558902 -0.0567982 -0.0577061 -0.0586141 -0.0595216 -0.0604211 -0.0613186 -0.0622161 -0.0631136 -0.0640082 -0.0648873 -0.0657644 -0.0666416 -0.0675187 -0.0683938 -0.0692512 -0.0701065 -0.0709618 -0.0718171 -0.0726704 -0.0735051 -0.0743371 -0.0751692 -0.0760012 -0.0768309 -0.0776392 -0.0784443 -0.0792495 -0.0800547 -0.080857 -0.0816351 -0.0824094 -0.0831836 -0.0839579 -0.0847286 -0.0854727 -0.0862127 -0.0869526 -0.0876926 -0.0884286 -0.089136 -0.0898385 -0.0905411 -0.0912436 -0.0919416 -0.0926089 -0.093271 -0.0939332 -0.0945954 -0.0952525 -0.095877 -0.0964958 -0.0971147 -0.0977335 -0.0983468 -0.0989258 -0.099499 -0.100072 -0.100645 -0.101213 -0.101745 -0.102271 -0.102798 -0.103324 -0.103844 -0.104328 -0.104806 -0.105284 -0.105761 -0.106233 -0.106667 -0.107094 -0.10752 -0.107947 -0.108367 -0.108747 -0.10912 -0.109493 -0.109865 -0.110231 -0.110555 -0.110872 -0.111189 -0.111506 -0.111816 -0.112084 -0.112344 -0.112604 -0.112864 -0.113117 -0.113327 -0.11353 -0.113733 -0.113935 -0.11413 -0.114282 -0.114426 -0.11457 -0.114715 -0.11485 -0.114943 -0.115029 -0.115114 -0.115199 -0.115277 -0.115313 -0.115342 -0.115371 -0.1154 -0.115421 -0.115403 -0.115377 -0.115352 -0.115326 -0.115294 -0.115223 -0.115145 -0.115068 -0.11499 -0.114905 -0.114782 -0.114653 -0.114523 -0.114394 -0.114257 -0.114083 -0.113902 -0.113721 -0.11354 -0.113351 -0.113127 -0.112897 -0.112666 -0.112436 -0.112198 -0.111928 -0.111651 -0.111374 -0.111098 -0.110814 -0.1105 -0.110179 -0.109858 -0.109538 -0.10921 -0.108854 -0.108492 -0.108129 -0.107767 -0.107398 -0.107001 -0.106599 -0.106197 -0.105795 -0.105388 -0.104954 -0.104516 -0.104078 -0.103639 -0.103196 -0.102729 -0.102259 -0.101788 -0.101318 -0.100843 -0.100349 -0.0998506 -0.0993526 -0.0988545 -0.0983523 -0.0978334 -0.097311 -0.0967886 -0.0962661 -0.0957399 -0.0951989 -0.0946545 -0.0941101 -0.0935658 -0.0930177 -0.0924567 -0.091893 -0.0913292 -0.0907654 -0.0901985 -0.0896208 -0.0890406 -0.0884604 -0.0878803 -0.0872971 -0.0867057 -0.0861123 -0.0855189 -0.0849255 -0.0843298 -0.083728 -0.0831244 -0.0825209 -0.0819174 -0.0813118 -0.0807021 -0.0800913 -0.0794805 -0.0788697 -0.0782574 -0.077643 -0.0770276 -0.0764122 -0.0757968 -0.0751801 -0.0745631 -0.0739457 -0.0733283 -0.0727109 -0.0720927 -0.071476 -0.070859 -0.070242 -0.069625 -0.0690075 -0.0683929 -0.0677786 -0.0671642 -0.0665499 -0.0659355 -0.0653254 -0.0647157 -0.064106 -0.0634963 -0.0628867 -0.0622828 -0.0616795 -0.0610763 -0.0604731 -0.0598704 -0.0592745 -0.0586795 -0.0580845 -0.0574895 -0.0568951 -0.0563086 -0.0557233 -0.0551381 -0.0545528 -0.0539686 -0.0533931 -0.052819 -0.0522449 -0.0516708 -0.0510977 -0.0505344 -0.0499726 -0.0494108 -0.048849 -0.0482887 -0.0477387 -0.0471903 -0.046642 -0.0460936 -0.0455467 -0.0450108 -0.0444767 -0.0439427 -0.0434087 -0.0428764 -0.0423555 -0.0418366 -0.0413176 -0.0407987 -0.0402815 -0.0397762 -0.039273 -0.0387698 -0.0382666 -0.0377654 -0.0372763 -0.0367893 -0.0363024 -0.0358154 -0.0353305 -0.0348578 -0.0343875 -0.0339171 -0.0334468 -0.0329786 -0.0325228 -0.0320694 -0.0316159 -0.0311624 -0.0307112 -0.0302724 -0.0298359 -0.0293995 -0.0289631 -0.028529 -0.0281073 -0.027688 -0.0272687 -0.0268493 -0.0264324 -0.0260277 -0.0256255 -0.0252233 -0.024821 -0.0244212 -0.0240337 -0.0236485 -0.0232634 -0.0228783 -0.0224956 -0.0221252 -0.0217573 -0.0213895 -0.0210216 -0.0206561 -0.0203029 -0.0199522 -0.0196014 -0.0192507 -0.0189023 -0.0185656 -0.0182316 -0.0178976 -0.0175636 -0.017232 -0.0169117 -0.0165938 -0.0162759 -0.015958 -0.0156426 -0.015338 -0.0150357 -0.0147334 -0.014431 -0.0141312 -0.0138419 -0.0135548 -0.0132678 -0.0129807 -0.0126962 -0.0124219 -0.0121498 -0.0118777 -0.0116056 -0.0113358 -0.0110761 -0.0108187 -0.0105612 -0.0103038 -0.0100486 -0.00980329 -0.00956013 -0.00931698 -0.00907382 -0.00883287 -0.00860139 -0.00837196 -0.00814253 -0.0079131 -0.00768575 -0.0074674 -0.00725115 -0.00703491 -0.00681866 -0.00660449 -0.00639897 -0.00619547 -0.00599198 -0.00578848 -0.00558698 -0.00539376 -0.00520265 -0.00501154 -0.00482043 -0.00463141 -0.00445037 -0.00427144 -0.00409251 -0.00391357 -0.00373669 -0.00356745 -0.00340027 -0.0032331 -0.00306592 -0.00290078 -0.00274273 -0.00258656 -0.00243038 -0.00227421 -0.00212007 -0.00197256 -0.00182658 -0.0016806 -0.00153462 -0.00139042 -0.00125246 -0.0011161 -0.000979746 -0.000843389 -0.000708806 -0.000580133 -0.000453069 -0.000326005 -0.000198941 -7.35228e-05 4.6144e-05 0.000164195 0.000282247 0.000400298 0.000516731 0.000627716 0.000737116 0.000846516 0.000955915 0.00106369 0.00116643 0.00126761 0.0013688 0.00146999 0.00156959 0.00166448 0.00175791 0.00185135 0.00194478 0.0020367 0.00212423 0.00221034 0.00229644 0.00238255 0.00246717 0.00254768 0.00262685 0.00270602 0.00278519 0.00286297 0.00293691 0.00300953 0.00308215 0.00315478 0.00322601 0.0032937 0.00336015 0.0034266 0.00349305 0.0035582 0.00362006 0.00368069 0.00374133 0.00380196 0.00386132 0.00391764 0.00397282 0.004028 0.00408317 0.00413714 0.00418834 0.00423839 0.00428845 0.0043385 0.00438736 0.00443366 0.00447889 0.00452413 0.00456936 0.00461346 0.00465523 0.00469593 0.00473663 0.00477734 0.00481693 0.00485438 0.00489085 0.00492731 0.00496378 0.00499919 0.00503269 0.0050652 0.00509771 0.00513021 0.00516168 0.00519141 0.00522023 0.00524904 0.00527785 0.0053057 0.00533197 0.00535733 0.0053827 0.00540807 0.00543247 0.00545547 0.00547763 0.00549979 0.00552195 0.0055432 0.00556323 0.00558242 0.0056016 0.00562079 0.00563907 0.0056563 0.00567273 0.00568916 0.0057056 0.00572119 0.00573587 0.00574976 0.00576365 0.00577754 0.0057906 0.00580286 0.0058144 0.00582594 0.00583749 0.00584826 0.00585836 0.00586773 0.00587711 0.00588649 0.00589509 0.00590316 0.00591055 0.00591795 0.00592534 0.00593201 0.00593826 0.00594383 0.00594941 0.00595498 0.00595984 0.00596438 0.0059683 0.00597221 0.00597613 0.00597937 0.00598242 0.00598483 0.00598724 0.00598964 0.00599138 0.00599301 0.00599406 0.0059951 0.00599614 0.00599655 0.00599695 0.00599675 0.00599655 0.00599635 0.00599552 0.00599476 0.00599345 0.00599215 0.00599084 0.00598895 0.00598721 0.00598492 0.00598263 0.00598033 0.00597746 0.00597481 0.00597164 0.00596847 0.00596529 0.00596158 0.00595815 0.0059542 0.00595026 0.00594632 0.00594183 0.0059377 0.00593309 0.00592848 0.00592387 0.00591874 0.00591405 0.00590888 0.0059037 0.00589853 0.00589284 0.00588765 0.005882 0.00587635 0.00587071 0.00586457 0.005859 0.00585297 0.00584694 0.00584091 0.0058344 0.00582851 0.00582218 0.00581584 0.00580951 0.00580273 0.00579662 0.00579007 0.00578352 0.00577697 0.00576997 0.0057637 0.00575701 0.00575032 0.00574363 0.00573651 0.00573017 0.00572341 0.00571665 0.0057099 0.00570271 0.00569636 0.00568961 0.00568286 0.0056761 0.00566893 0.00566266 0.00565597 0.00564929 0.00564261 0.00563552 0.00562937 0.00562283 0.00561628 0.00560974 0.00560279 0.00559684 0.00559049 0.00558415 0.0055778 0.00557107 0.00556537 0.00555928 0.00555319 0.00554711 0.00554063 0.00553524 0.00552946 0.00552369 0.00551792 0.00551177 0.00550674 0.00550133 0.00549591 0.0054905 0.00548471 0.00548008 0.00547507 0.00547006 0.00546504 0.00545967 0.00545547 0.00545088 0.0054463 0.00544171 0.00543675 0.00543297 0.0054288 0.00542463 0.00542046 0.00541593 0.00541254 0.00540873 0.00540492 0.00540111 0.0053969 0.0053937 0.00539006 0.00538642 0.00538278 0.00537872 0.00537531 0.0053714 0.00536748 0.00536357 0.00535917 0.00535426 0.00534854 0.00534282 0.00533709 0.00533058 0.00532181 0.0053126 0.00530339 0.00529419 0.00528449 0.00525837 0.00522672 0.00519507 0.00516342 0.00512689 0.0051154 0.00511806 0.00512071 0.00512337 0.00514899 0.00523259 0.00530863 0.005388 0.00545097 0.00549659 0.00548956 0.00548573 0.00548189 0.00547809 0.00547655 0.00550343 0.00553111 0.0055588 0.00557847 0.00559943 0.00561336 0.00563221 0.00565109 0.00566996 0.00568429 0.00574718 0.00581219 0.0058772 0.00594221 0.00599872 0.00609015 0.00616626 0.00624236 0.00631847 0.00632361 0.00630898 0.0062896 0.00627022 0.00625083 0.00624095 0.00604009 0.00581852 0.00559696 0.00537539 0.00504801 0.00456801 0.00407412 0.00358023 0.00308634 0.00262224 0.00235246 0.00207514 0.00179782 0.0015205 0.00127315 0.00117453 0.00106948 0.000964438 0.000859393 0.000773727 0.000667792 0.000556301 0.00044481 0.000333317 0.00025531
-0.0319472 -0.0319663 -0.0319854 -0.0320045 -0.0320236 -0.0320427 -0.0327435 -0.0336212 -0.0344038 -0.0351663 -0.0362245 -0.0372612 -0.0382516 -0.0392541 -0.0403135 -0.0412974 -0.0422586 -0.0432246 -0.0441652 -0.0451005 -0.0460064 -0.0469044 -0.0478105 -0.0487164 -0.0496216 -0.0505266 -0.0514183 -0.052322 -0.0532307 -0.0541404 -0.0550608 -0.0559659 -0.0568782 -0.0577899 -0.0586994 -0.0596145 -0.0605158 -0.0614141 -0.0623137 -0.0632136 -0.0641097 -0.0649908 -0.0658708 -0.0667504 -0.067628 -0.0685039 -0.0693621 -0.0702177 -0.0710759 -0.0719347 -0.0727912 -0.0736252 -0.0744606 -0.0752955 -0.0761278 -0.0769615 -0.0777687 -0.0785741 -0.0793819 -0.0801901 -0.0809968 -0.0817725 -0.0825497 -0.0833263 -0.0841007 -0.0848767 -0.0856175 -0.0863575 -0.0870998 -0.0878425 -0.0885849 -0.0892873 -0.0899925 -0.0906972 -0.0913998 -0.0921052 -0.0927665 -0.0934287 -0.0940929 -0.0947575 -0.0954233 -0.0960402 -0.0966612 -0.0972819 -0.0979007 -0.0985234 -0.0990925 -0.0996655 -0.10024 -0.100815 -0.101395 -0.101914 -0.102441 -0.102969 -0.103495 -0.104029 -0.104502 -0.104979 -0.105457 -0.105936 -0.106421 -0.106843 -0.10727 -0.107697 -0.108124 -0.108555 -0.108925 -0.109298 -0.10967 -0.110043 -0.110418 -0.110733 -0.111049 -0.111366 -0.111683 -0.112001 -0.11226 -0.11252 -0.11278 -0.113039 -0.113299 -0.113502 -0.113703 -0.113906 -0.114108 -0.11431 -0.114455 -0.114598 -0.114742 -0.114886 -0.115029 -0.115111 -0.115197 -0.115282 -0.115368 -0.115455 -0.115479 -0.115508 -0.115536 -0.115565 -0.115599 -0.115566 -0.11554 -0.115514 -0.115489 -0.115469 -0.115385 -0.115307 -0.115227 -0.115148 -0.115074 -0.114938 -0.114805 -0.114673 -0.114543 -0.114415 -0.114229 -0.114047 -0.113863 -0.113678 -0.113498 -0.113263 -0.113029 -0.112795 -0.112564 -0.112335 -0.112053 -0.111776 -0.111496 -0.111215 -0.110939 -0.110614 -0.11029 -0.109966 -0.109645 -0.109324 -0.108959 -0.108596 -0.108231 -0.107866 -0.107502 -0.107099 -0.106695 -0.106291 -0.105889 -0.105486 -0.105045 -0.104607 -0.104167 -0.103727 -0.103288 -0.102812 -0.102339 -0.101866 -0.101395 -0.100927 -0.100422 -0.0999229 -0.0994217 -0.0989201 -0.098425 -0.0978959 -0.0973697 -0.096844 -0.0963211 -0.0958008 -0.0952512 -0.0947065 -0.0941591 -0.0936112 -0.0930681 -0.0924996 -0.0919325 -0.091366 -0.0908018 -0.0902387 -0.0896541 -0.0890736 -0.0884908 -0.0879074 -0.087328 -0.0867302 -0.0861338 -0.0855378 -0.0849441 -0.0843514 -0.0837437 -0.0831399 -0.0825339 -0.0819275 -0.0813247 -0.0807099 -0.0800964 -0.0794832 -0.0788721 -0.078262 -0.0776428 -0.0770272 -0.0764096 -0.0757916 -0.0751769 -0.0745559 -0.0739361 -0.0733166 -0.072699 -0.0720822 -0.0714618 -0.0708446 -0.0702258 -0.0696066 -0.0689904 -0.0683729 -0.0677566 -0.0671406 -0.066526 -0.0659125 -0.0652998 -0.06469 -0.0640787 -0.0634672 -0.0628584 -0.0622523 -0.0616474 -0.0610428 -0.0604395 -0.059837 -0.0592394 -0.0586442 -0.058048 -0.0574515 -0.0568573 -0.0562695 -0.055683 -0.0550966 -0.0545112 -0.0539268 -0.0533504 -0.0527762 -0.0522011 -0.0516258 -0.0510525 -0.0504886 -0.0499258 -0.0493632 -0.0488014 -0.0482405 -0.0476902 -0.0471418 -0.0465927 -0.0460435 -0.045496 -0.0449602 -0.0444254 -0.0438908 -0.0433567 -0.0428235 -0.042303 -0.041784 -0.0412646 -0.0407451 -0.0402271 -0.0397224 -0.0392187 -0.0387151 -0.0382119 -0.0377096 -0.0372213 -0.0367343 -0.0362471 -0.0357598 -0.0352737 -0.0348021 -0.0343316 -0.033861 -0.0333907 -0.0329212 -0.0324667 -0.0320133 -0.0315597 -0.0311061 -0.0306536 -0.0302162 -0.0297797 -0.0293433 -0.0289069 -0.0284714 -0.0280513 -0.027632 -0.0272128 -0.0267935 -0.0263752 -0.0259722 -0.0255701 -0.025168 -0.0247658 -0.0243646 -0.0239786 -0.0235935 -0.0232085 -0.0228236 -0.0224396 -0.0220706 -0.0217029 -0.0213353 -0.0209674 -0.0206008 -0.0202489 -0.0198982 -0.0195477 -0.0191972 -0.0188479 -0.0185125 -0.0181785 -0.0178446 -0.0175107 -0.017178 -0.0168594 -0.0165416 -0.0162239 -0.0159062 -0.0155895 -0.015287 -0.014985 -0.014683 -0.0143808 -0.0140791 -0.0137926 -0.0135056 -0.0132189 -0.0129323 -0.0126454 -0.0123741 -0.0121024 -0.0118307 -0.0115586 -0.0112864 -0.0110294 -0.010772 -0.0105149 -0.0102579 -0.0100005 -0.00975768 -0.00951498 -0.00927221 -0.0090291 -0.00878619 -0.00855721 -0.00832786 -0.00809892 -0.00787006 -0.00764072 -0.00742504 -0.00720952 -0.00699389 -0.00677777 -0.0065619 -0.00635881 -0.00615542 -0.00595256 -0.00574981 -0.00554678 -0.00535579 -0.00516543 -0.00497494 -0.00478391 -0.00459343 -0.00441428 -0.00423541 -0.00405693 -0.00387854 -0.00370052 -0.00353252 -0.00336557 -0.00319859 -0.00303145 -0.00286512 -0.0027085 -0.00255239 -0.00239639 -0.00224041 -0.00208508 -0.00193938 -0.0017938 -0.00164817 -0.00150231 -0.00135675 -0.00122133 -0.0010851 -0.000949261 -0.000813503 -0.000676984 -0.00055102 -0.000424621 -0.00029812 -0.000171168 -4.39289e-05 7.33414e-05 0.000191307 0.000308834 0.000426262 0.000544428 0.000653244 0.000762096 0.000871035 0.000980366 0.00108971 0.00119043 0.00129155 0.00139232 0.00149302 0.00159408 0.00168708 0.00178004 0.00187308 0.00196645 0.00205975 0.0021454 0.00223144 0.00231716 0.0024028 0.00248877 0.00256751 0.00264622 0.002725 0.00280411 0.00288315 0.00295532 0.00302787 0.00310011 0.00317226 0.00324474 0.00331081 0.00337682 0.00344289 0.00350929 0.0035756 0.00363584 0.00369642 0.00375672 0.00381696 0.00387747 0.00393227 0.00398709 0.00404198 0.0040971 0.00415224 0.00420185 0.00425185 0.00430161 0.00435132 0.00440134 0.00444612 0.004491 0.00453593 0.0045811 0.00462635 0.00466657 0.00470722 0.00474763 0.00478798 0.0048287 0.0048647 0.00490083 0.00493701 0.00497343 0.00500996 0.00504197 0.00507443 0.00510666 0.00513885 0.00517143 0.00519975 0.00522826 0.00525681 0.00528558 0.00531451 0.00533936 0.00536468 0.0053898 0.00541487 0.00544035 0.00546202 0.0054839 0.00550583 0.00552795 0.00555026 0.00556893 0.00558807 0.00560703 0.00562595 0.00564529 0.00566122 0.0056774 0.00569361 0.00571001 0.00572664 0.00573999 0.00575384 0.00576753 0.00578117 0.00579525 0.00580628 0.00581758 0.00582893 0.00584043 0.00585221 0.00586104 0.00587038 0.00587957 0.00588872 0.00589834 0.0059052 0.00591238 0.00591959 0.00592695 0.00593461 0.00593963 0.00594517 0.00595057 0.00595595 0.00596179 0.00596517 0.0059689 0.00597265 0.00597654 0.00598077 0.0059826 0.00598499 0.00598725 0.00598948 0.0059922 0.00599269 0.00599356 0.00599446 0.00599547 0.00599686 0.00599607 0.00599585 0.00599551 0.00599515 0.0059953 0.00599341 0.00599195 0.00599052 0.00598919 0.00598827 0.0059854 0.00598309 0.00598067 0.00597823 0.00597631 0.00597258 0.00596926 0.00596597 0.00596278 0.00596 0.00595548 0.00595151 0.00594746 0.00594338 0.00593981 0.00593464 0.00592991 0.0059252 0.00592057 0.00591637 0.00591062 0.00590542 0.00590015 0.00589486 0.00589009 0.00588389 0.00587813 0.00587239 0.00586673 0.00586152 0.00585491 0.00584886 0.00584275 0.00583661 0.00583102 0.00582412 0.00581769 0.00581128 0.00580494 0.00579907 0.00579193 0.00578537 0.00577875 0.00577212 0.00576603 0.00575876 0.00575199 0.00574523 0.00573853 0.00573233 0.00572498 0.00571821 0.00571139 0.00570456 0.00569829 0.00569096 0.00568414 0.00567733 0.00567057 0.00566432 0.00565704 0.00565035 0.00564362 0.00563688 0.0056307 0.00562358 0.00561698 0.00561039 0.00560384 0.00559783 0.00559088 0.00558453 0.00557814 0.00557175 0.00556594 0.00555927 0.00555314 0.00554703 0.00554093 0.0055354 0.00552902 0.00552324 0.00551745 0.00551165 0.00550644 0.00550044 0.00549501 0.00548959 0.00548417 0.00547935 0.00547374 0.00546872 0.00546372 0.00545871 0.00545431 0.00544914 0.0054446 0.00544004 0.00543546 0.00543153 0.00542676 0.0054226 0.00541852 0.00541445 0.005411 0.00540662 0.00540303 0.0053994 0.00539561 0.00539264 0.00538847 0.00538488 0.00538165 0.0053785 0.00537594 0.00537161 0.0053688 0.0053658 0.00536202 0.00535975 0.00535442 0.00534917 0.00534618 0.00534372 0.00534129 0.00533225 0.00533051 0.00532759 0.00531965 0.00531861 0.0053043 0.00527973 0.00527522 0.00527544 0.00526471 0.00522181 0.00523338 0.00524375 0.00524902 0.00531713 0.00541059 0.00547415 0.00553773 0.00557571 0.0055294 0.00551018 0.00550314 0.0054961 0.0054886 0.0054926 0.00551014 0.0055283 0.00554647 0.00555817 0.00556943 0.00557048 0.00557154 0.00557259 0.00557352 0.00557421 0.00559904 0.00562799 0.00565703 0.00568607 0.00565945 0.0056976 0.00576024 0.00582325 0.00588627 0.00596626 0.00618053 0.00626955 0.00635201 0.00642811 0.00632119 0.00635705 0.00633767 0.00632122 0.00631175 0.00625638 0.00620982 0.00598826 0.00576669 0.00553255 0.00503894 0.00469932 0.00420542 0.00371153 0.00321497 0.00259616 0.00241452 0.0021372 0.00185988 0.00158256 0.00124274 0.00122362 0.00111858 0.00101354 0.00090849 0.000751296 0.00071528 0.000603791 0.000492301 0.000380812 0.000206783