# vtk DataFile Version 2.0
track0
ASCII
DATASET POLYDATA
POINTS 15780 float
-1.001 -0.05 0.0011
-1.0008 -0.05 0.0011
-1.0006 -0.05 0.0011
-1.0004 -0.05 0.0011
-1.0002 -0.05 0.0011
-1 -0.05 0.0011
-0.9875 -0.05 0.0011
-0.975 -0.05 0.0011
-0.9625 -0.05 0.0011
-0.95 -0.05 0.0011
-0.9375 -0.05 0.00109999
-0.925 -0.05 0.00109999
-0.9125 -0.05 0.00109999
-0.9 -0.05 0.00109999
-0.8875 -0.05 0.00109999
-0.875 -0.05 0.00109999
-0.8625 -0.05 0.00109999
-0.85 -0.05 0.00109999
-0.8375 -0.05 0.00109998
-0.825 -0.0500001 0.00109998
-0.8125 -0.0500001 0.00109998
-0.8 -0.0500001 0.00109998
-0.7875 -0.0500001 0.00109998
-0.775 -0.0500001 0.00109998
-0.7625 -0.0500001 0.00109998
-0.75 -0.0500001 0.00109998
-0.7375 -0.0500001 0.00109997
-0.725 -0.0500001 0.00109997
-0.7125 -0.0500001 0.00109997
-0.7 -0.0500001 0.00109997
-0.6875 -0.0500001 0.00109997
-0.675 -0.0500001 0.00109997
-0.6625 -0.0500001 0.00109997
-0.65 -0.0500001 0.00109996
-0.6375 -0.0500001 0.00109996
-0.625 -0.0500001 0.00109996
-0.6125 -0.0500001 0.00109996
-0.6 -0.0500001 0.00109996
-0.5875 -0.0500001 0.00109996
-0.575 -0.0500001 0.00109996
-0.5625 -0.0500001 0.00109996
-0.55 -0.0500001 0.00109995
-0.5375 -0.0500001 0.00109995
-0.525 -0.0500001 0.00109995
-0.5125 -0.0500001 0.00109995
-0.5 -0.0500001 0.00109995
-0.4875 -0.0500001 0.00109995
-0.475 -0.0500001 0.00109995
-0.4625 -0.0500001 0.00109994
-0.45 -0.0500002 0.00109994
-0.4375 -0.0500002 0.00109994
-0.425 -0.0500002 0.00109994
-0.4125 -0.0500002 0.00109994
-0.4 -0.0500002 0.00109994
-0.3875 -0.0500002 0.00109994
-0.375 -0.0500002 0.00109994
-0.3625 -0.0500002 0.00109993
-0.35 -0.0500002 0.00109993
-0.3375 -0.0500002 0.00109993
-0.325 -0.0500002 0.00109993
-0.3125 -0.0500002 0.00109993
-0.3 -0.0500002 0.00109993
-0.2875 -0.0500002 0.00109993
-0.275 -0.0500002 0.00109993
-0.2625 -0.0500002 0.00109992
-0.25 -0.0500002 0.00109992
-0.2375 -0.0500002 0.00109992
-0.225 -0.0500002 0.00109992
-0.2125 -0.0500002 0.00109992
-0.2 -0.0500002 0.00109992
-0.1875 -0.0500002 0.00109992
-0.175 -0.0500002 0.00109992
-0.1625 -0.0500002 0.00109991
-0.15 -0.0500002 0.00109991
-0.1375 -0.0500002 0.00109991
-0.125 -0.0500002 0.00109991
-0.1125 -0.0500002 0.00109991
-0.1 -0.0500002 0.00109991
-0.0875 -0.0500002 0.00109991
-0.075 -0.0500002 0.00109991
-0.0625 -0.0500002 0.00109991
-0.05 -0.0500003 0.00109991
-0.0375 -0.0500003 0.0010999
-0.025 -0.0500003 0.0010999
-0.0125 -0.0500003 0.0010999
2.10607e-13 -0.0500003 0.0010999
0.0125 -0.0500003 0.0010999
0.025 -0.0500003 0.0010999
0.0375 -0.0500003 0.0010999
0.05 -0.0500003 0.0010999
0.0625 -0.0500003 0.0010999
0.075 -0.0500003 0.0010999
0.0875 -0.0500003 0.0010999
0.1 -0.0500003 0.00109989
0.1125 -0.0500003 0.00109989
0.125 -0.0500003 0.00109989
0.1375 -0.0500003 0.00109989
0.15 -0.0500003 0.00109989
0.1625 -0.0500003 0.00109989
0.175 -0.0500003 0.00109989
0.1875 -0.0500003 0.00109989
0.2 -0.0500003 0.00109989
0.2125 -0.0500003 0.00109989
0.225 -0.0500003 0.00109989
0.2375 -0.0500003 0.00109989
0.25 -0.0500003 0.00109989
0.2625 -0.0500003 0.00109988
0.275 -0.0500003 0.00109988
0.2875 -0.0500003 0.00109988
0.3 -0.0500003 0.00109988
0.3125 -0.0500003 0.00109988
0.325 -0.0500003 0.00109988
0.3375 -0.0500003 0.00109988
0.35 -0.0500003 0.00109988
0.3625 -0.0500003 0.00109988
0.375 -0.0500003 0.00109988
0.3875 -0.0500003 0.00109988
0.4 -0.0500004 0.00109988
0.4125 -0.0500004 0.00109988
0.425 -0.0500004 0.00109988
0.4375 -0.0500004 0.00109988
0.45 -0.0500004 0.00109988
0.4625 -0.0500004 0.00109988
0.475 -0.0500004 0.00109988
0.4875 -0.0500004 0.00109988
0.5 -0.0500004 0.00109988
0.5125 -0.0500004 0.00109988
0.525 -0.0500004 0.00109988
0.5375 -0.0500004 0.00109988
0.55 -0.0500004 0.00109988
0.5625 -0.0500004 0.00109988
0.575 -0.0500004 0.00109987
0.5875 -0.0500004 0.00109987
0.6 -0.0500004 0.00109987
0.6125 -0.0500004 0.00109987
0.625 -0.0500004 0.00109987
0.6375 -0.0500004 0.00109987
0.65 -0.0500004 0.00109987
0.6625 -0.0500004 0.00109987
0.675 -0.0500004 0.00109987
0.6875 -0.0500004 0.00109987
0.7 -0.0500004 0.00109987
0.7125 -0.0500004 0.00109987
0.725 -0.0500004 0.00109987
0.7375 -0.0500004 0.00109987
0.75 -0.0500004 0.00109987
0.7625 -0.0500004 0.00109987
0.775 -0.0500004 0.00109987
0.7875 -0.0500004 0.00109987
0.8 -0.0500004 0.00109987
0.8125 -0.0500004 0.00109987
0.825 -0.0500004 0.00109987
0.8375 -0.0500004 0.00109987
0.85 -0.0500004 0.00109987
0.8625 -0.0500004 0.00109987
0.875 -0.0500004 0.00109987
0.8875 -0.0500004 0.00109987
0.9 -0.0500004 0.00109987
0.9125 -0.0500005 0.00109988
0.925 -0.0500005 0.00109988
0.9375 -0.0500005 0.00109988
0.95 -0.0500005 0.00109988
0.9625 -0.0500005 0.00109988
0.975 -0.0500005 0.00109988
0.9875 -0.0500005 0.00109988
1 -0.0500005 0.00109988
1.0125 -0.0500005 0.00109988
1.025 -0.0500005 0.00109988
1.0375 -0.0500005 0.00109988
1.05 -0.0500005 0.00109988
1.0625 -0.0500005 0.00109988
1.075 -0.0500005 0.00109988
1.0875 -0.0500005 0.00109988
1.1 -0.0500005 0.00109988
1.1125 -0.0500005 0.00109988
1.125 -0.0500005 0.00109988
1.1375 -0.0500005 0.00109988
1.15 -0.0500005 0.00109988
1.1625 -0.0500005 0.00109988
1.175 -0.0500005 0.00109988
1.1875 -0.0500005 0.00109988
1.2 -0.0500005 0.00109988
1.2125 -0.0500005 0.00109988
1.225 -0.0500005 0.00109988
1.2375 -0.0500005 0.00109989
1.25 -0.0500005 0.00109989
1.2625 -0.0500005 0.00109989
1.275 -0.0500005 0.00109989
1.2875 -0.0500005 0.00109989
1.3 -0.0500005 0.00109989
1.3125 -0.0500005 0.00109989
1.325 -0.0500005 0.00109989
1.3375 -0.0500005 0.00109989
1.35 -0.0500005 0.00109989
1.3625 -0.0500005 0.00109989
1.375 -0.0500005 0.00109989
1.3875 -0.0500005 0.00109989
1.4 -0.0500005 0.00109989
1.4125 -0.0500005 0.00109989
1.425 -0.0500005 0.00109989
1.4375 -0.0500005 0.0010999
1.45 -0.0500005 0.0010999
1.4625 -0.0500005 0.0010999
1.475 -0.0500005 0.0010999
1.4875 -0.0500005 0.0010999
1.5 -0.0500006 0.0010999
1.5125 -0.0500006 0.0010999
1.525 -0.0500006 0.0010999
1.5375 -0.0500006 0.0010999
1.55 -0.0500006 0.0010999
1.5625 -0.0500006 0.0010999
1.575 -0.0500006 0.0010999
1.5875 -0.0500006 0.0010999
1.6 -0.0500006 0.0010999
1.6125 -0.0500006 0.00109991
1.625 -0.0500006 0.00109991
1.6375 -0.0500006 0.00109991
1.65 -0.0500006 0.00109991
1.6625 -0.0500006 0.00109991
1.675 -0.0500006 0.00109991
1.6875 -0.0500006 0.00109991
1.7 -0.0500006 0.00109991
1.7125 -0.0500006 0.00109991
1.725 -0.0500006 0.00109991
1.7375 -0.0500006 0.00109991
1.75 -0.0500006 0.00109991
1.7625 -0.0500006 0.00109992
1.775 -0.0500006 0.00109992
1.7875 -0.0500006 0.00109992
1.8 -0.0500006 0.00109992
1.8125 -0.0500006 0.00109992
1.825 -0.0500006 0.00109992
1.8375 -0.0500006 0.00109992
1.85 -0.0500006 0.00109992
1.8625 -0.0500006 0.00109992
1.875 -0.0500006 0.00109992
1.8875 -0.0500006 0.00109992
1.9 -0.0500006 0.00109992
1.9125 -0.0500006 0.00109993
1.925 -0.0500006 0.00109993
1.9375 -0.0500006 0.00109993
1.95 -0.0500006 0.00109993
1.9625 -0.0500006 0.00109993
1.975 -0.0500006 0.00109993
1.9875 -0.0500006 0.00109993
2 -0.0500006 0.00109993
2.0125 -0.0500006 0.00109993
2.025 -0.0500006 0.00109993
2.0375 -0.0500006 0.00109993
2.05 -0.0500006 0.00109993
2.0625 -0.0500006 0.00109994
2.075 -0.0500006 0.00109994
2.0875 -0.0500006 0.00109994
2.1 -0.0500006 0.00109994
2.1125 -0.0500006 0.00109994
2.125 -0.0500006 0.00109994
2.1375 -0.0500006 0.00109994
2.15 -0.0500006 0.00109994
2.1625 -0.0500006 0.00109994
2.175 -0.0500007 0.00109994
2.1875 -0.0500007 0.00109994
2.2 -0.0500007 0.00109994
2.2125 -0.0500007 0.00109994
2.225 -0.0500007 0.00109995
2.2375 -0.0500007 0.00109995
2.25 -0.0500007 0.00109995
2.2625 -0.0500007 0.00109995
2.275 -0.0500007 0.00109995
2.2875 -0.0500007 0.00109995
2.3 -0.0500007 0.00109995
2.3125 -0.0500007 0.00109995
2.325 -0.0500007 0.00109995
2.3375 -0.0500007 0.00109995
2.35 -0.0500007 0.00109995
2.3625 -0.0500007 0.00109995
2.375 -0.0500007 0.00109995
2.3875 -0.0500007 0.00109996
2.4 -0.0500007 0.00109996
2.4125 -0.0500007 0.00109996
2.425 -0.0500007 0.00109996
2.4375 -0.0500007 0.00109996
2.45 -0.0500007 0.00109996
2.4625 -0.0500007 0.00109996
2.475 -0.0500007 0.00109996
2.4875 -0.0500007 0.00109996
2.5 -0.0500007 0.00109996
2.5125 -0.0500007 0.00109996
2.525 -0.0500007 0.00109996
2.5375 -0.0500007 0.00109996
2.55 -0.0500007 0.00109996
2.5625 -0.0500007 0.00109997
2.575 -0.0500007 0.00109997
2.5875 -0.0500007 0.00109997
2.6 -0.0500007 0.00109997
2.6125 -0.0500007 0.00109997
2.625 -0.0500007 0.00109997
2.6375 -0.0500007 0.00109997
2.65 -0.0500007 0.00109997
2.6625 -0.0500007 0.00109997
2.675 -0.0500007 0.00109997
2.6875 -0.0500007 0.00109997
2.7 -0.0500007 0.00109997
2.7125 -0.0500007 0.00109997
2.725 -0.0500007 0.00109997
2.7375 -0.0500007 0.00109997
2.75 -0.0500007 0.00109997
2.7625 -0.0500007 0.00109998
2.775 -0.0500007 0.00109998
2.7875 -0.0500007 0.00109998
2.8 -0.0500007 0.00109998
2.8125 -0.0500007 0.00109998
2.825 -0.0500007 0.00109998
2.8375 -0.0500007 0.00109998
2.85 -0.0500007 0.00109998
2.8625 -0.0500008 0.00109998
2.875 -0.0500008 0.00109998
2.8875 -0.0500008 0.00109998
2.9 -0.0500008 0.00109998
2.9125 -0.0500008 0.00109998
2.925 -0.0500008 0.00109998
2.9375 -0.0500008 0.00109998
2.95 -0.0500008 0.00109998
2.9625 -0.0500008 0.00109998
2.975 -0.0500008 0.00109998
2.9875 -0.0500008 0.00109998
3 -0.0500008 0.00109998
3.0125 -0.0500008 0.00109999
3.025 -0.0500008 0.00109999
3.0375 -0.0500008 0.00109999
3.05 -0.0500008 0.00109999
3.0625 -0.0500008 0.00109999
3.075 -0.0500008 0.00109999
3.0875 -0.0500008 0.00109999
3.1 -0.0500008 0.00109999
3.1125 -0.0500008 0.00109999
3.125 -0.0500008 0.00109999
3.1375 -0.0500008 0.00109999
3.15 -0.0500008 0.00109999
3.1625 -0.0500008 0.00109999
3.175 -0.0500008 0.00109999
3.1875 -0.0500008 0.00109999
3.2 -0.0500008 0.00109999
3.2125 -0.0500008 0.00109999
3.225 -0.0500008 0.00109999
3.2375 -0.0500008 0.00109999
3.25 -0.0500008 0.00109999
3.2625 -0.0500008 0.00109999
3.275 -0.0500008 0.00109999
3.2875 -0.0500008 0.00109999
3.3 -0.0500008 0.00109999
3.3125 -0.0500008 0.00109999
3.325 -0.0500008 0.00109999
3.3375 -0.0500008 0.00109999
3.35 -0.0500008 0.0011
3.3625 -0.0500008 0.0011
[...]
POINT_DATA 15780
 FIELD attributes 2
p 1 15780 float
-0.0310978 -0.0311138 -0.0311298 -0.0311459 -0.0311619 -0.031178 -0.0321094 -0.0330332 -0.0339569 -0.0348807 -0.0359011 -0.0369649 -0.0380313 -0.0390977 -0.040164 -0.0411837 -0.0421672 -0.0431319 -0.0440967 -0.0450615 -0.0459747 -0.0468725 -0.0477751 -0.0486776 -0.0495801 -0.0504769 -0.0513775 -0.052279 -0.0531805 -0.054082 -0.0549828 -0.0558903 -0.0567983 -0.0577062 -0.0586142 -0.0595216 -0.0604212 -0.0613187 -0.0622162 -0.0631137 -0.0640083 -0.0648873 -0.0657645 -0.0666416 -0.0675188 -0.0683938 -0.0692512 -0.0701065 -0.0709618 -0.0718171 -0.0726705 -0.0735051 -0.0743372 -0.0751692 -0.0760013 -0.076831 -0.0776392 -0.0784444 -0.0792496 -0.0800547 -0.080857 -0.0816352 -0.0824094 -0.0831837 -0.083958 -0.0847286 -0.0854728 -0.0862127 -0.0869527 -0.0876926 -0.0884287 -0.089136 -0.0898386 -0.0905411 -0.0912437 -0.0919416 -0.0926089 -0.0932711 -0.0939333 -0.0945954 -0.0952526 -0.095877 -0.0964959 -0.0971147 -0.0977336 -0.0983469 -0.0989258 -0.099499 -0.100072 -0.100645 -0.101213 -0.101745 -0.102271 -0.102798 -0.103324 -0.103844 -0.104329 -0.104806 -0.105284 -0.105761 -0.106233 -0.106667 -0.107094 -0.107521 -0.107947 -0.108367 -0.108747 -0.10912 -0.109493 -0.109866 -0.110231 -0.110555 -0.110873 -0.11119 -0.111507 -0.111816 -0.112084 -0.112344 -0.112604 -0.112865 -0.113117 -0.113327 -0.11353 -0.113733 -0.113935 -0.11413 -0.114282 -0.114426 -0.11457 -0.114715 -0.11485 -0.114943 -0.115029 -0.115114 -0.1152 -0.115277 -0.115313 -0.115342 -0.115371 -0.1154 -0.115421 -0.115403 -0.115377 -0.115352 -0.115326 -0.115294 -0.115223 -0.115146 -0.115068 -0.11499 -0.114905 -0.114783 -0.114653 -0.114523 -0.114394 -0.114257 -0.114083 -0.113902 -0.113721 -0.11354 -0.113351 -0.113127 -0.112897 -0.112666 -0.112436 -0.112198 -0.111928 -0.111651 -0.111375 -0.111098 -0.110814 -0.1105 -0.110179 -0.109858 -0.109538 -0.10921 -0.108854 -0.108492 -0.108129 -0.107767 -0.107398 -0.107001 -0.106599 -0.106197 -0.105795 -0.105388 -0.104954 -0.104516 -0.104078 -0.10364 -0.103196 -0.102729 -0.102259 -0.101788 -0.101318 -0.100843 -0.100349 -0.0998508 -0.0993527 -0.0988546 -0.0983524 -0.0978336 -0.0973111 -0.0967887 -0.0962663 -0.09574 -0.095199 -0.0946547 -0.0941103 -0.0935659 -0.0930178 -0.0924569 -0.0918931 -0.0913293 -0.0907656 -0.0901986 -0.089621 -0.0890408 -0.0884606 -0.0878804 -0.0872973 -0.0867058 -0.0861124 -0.085519 -0.0849256 -0.0843299 -0.0837281 -0.0831246 -0.082521 -0.0819175 -0.081312 -0.0807023 -0.0800915 -0.0794806 -0.0788698 -0.0782575 -0.0776431 -0.0770277 -0.0764123 -0.0757969 -0.0751802 -0.0745633 -0.0739458 -0.0733284 -0.072711 -0.0720929 -0.0714761 -0.0708591 -0.0702421 -0.0696251 -0.0690076 -0.068393 -0.0677787 -0.0671644 -0.06655 -0.0659356 -0.0653256 -0.0647159 -0.0641062 -0.0634965 -0.0628869 -0.0622829 -0.0616797 -0.0610765 -0.0604733 -0.0598706 -0.0592747 -0.0586797 -0.0580846 -0.0574896 -0.0568953 -0.0563087 -0.0557235 -0.0551382 -0.054553 -0.0539687 -0.0533933 -0.0528191 -0.052245 -0.0516709 -0.0510979 -0.0505345 -0.0499727 -0.0494109 -0.0488492 -0.0482888 -0.0477388 -0.0471905 -0.0466421 -0.0460937 -0.0455469 -0.0450109 -0.0444769 -0.0439428 -0.0434088 -0.0428765 -0.0423556 -0.0418367 -0.0413178 -0.0407988 -0.0402817 -0.0397763 -0.0392731 -0.0387699 -0.0382667 -0.0377655 -0.0372764 -0.0367894 -0.0363025 -0.0358155 -0.0353306 -0.0348579 -0.0343876 -0.0339172 -0.0334469 -0.0329787 -0.032523 -0.0320695 -0.031616 -0.0311626 -0.0307113 -0.0302725 -0.0298361 -0.0293996 -0.0289632 -0.0285291 -0.0281074 -0.0276881 -0.0272688 -0.0268495 -0.0264325 -0.0260278 -0.0256256 -0.0252234 -0.0248211 -0.0244213 -0.0240338 -0.0236487 -0.0232636 -0.0228785 -0.0224957 -0.0221253 -0.0217575 -0.0213896 -0.0210217 -0.0206563 -0.020303 -0.0199523 -0.0196016 -0.0192508 -0.0189024 -0.0185658 -0.0182317 -0.0178977 -0.0175637 -0.0172321 -0.0169118 -0.0165939 -0.016276 -0.0159581 -0.0156427 -0.0153381 -0.0150358 -0.0147335 -0.0144311 -0.0141313 -0.013842 -0.0135549 -0.0132679 -0.0129808 -0.0126963 -0.012422 -0.0121499 -0.0118778 -0.0116057 -0.0113359 -0.0110762 -0.0108188 -0.0105613 -0.0103039 -0.0100487 -0.00980337 -0.00956021 -0.00931706 -0.0090739 -0.00883295 -0.00860147 -0.00837204 -0.00814261 -0.00791317 -0.00768583 -0.00746747 -0.00725122 -0.00703498 -0.00681873 -0.00660456 -0.00639904 -0.00619554 -0.00599204 -0.00578855 -0.00558705 -0.00539383 -0.00520272 -0.00501161 -0.00482049 -0.00463148 -0.00445044 -0.00427151 -0.00409257 -0.00391364 -0.00373676 -0.00356752 -0.00340034 -0.00323316 -0.00306599 -0.00290085 -0.0027428 -0.00258663 -0.00243045 -0.00227428 -0.00212014 -0.00197263 -0.00182665 -0.00168067 -0.00153469 -0.00139048 -0.00125253 -0.00111617 -0.00097981 -0.000843452 -0.000708868 -0.000580195 -0.00045313 -0.000326065 -0.000199001 -7.35812e-05 4.60863e-05 0.000164138 0.00028219 0.000400242 0.000516676 0.000627662 0.000737063 0.000846463 0.000955864 0.00106364 0.00116638 0.00126757 0.00136875 0.00146994 0.00156955 0.00166444 0.00175787 0.0018513 0.00194474 0.00203666 0.00212419 0.0022103 0.0022964 0.00238251 0.00246713 0.00254764 0.00262681 0.00270598 0.00278516 0.00286293 0.00293687 0.00300949 0.00308212 0.00315474 0.00322597 0.00329367 0.00336012 0.00342657 0.00349302 0.00355817 0.00362003 0.00368066 0.0037413 0.00380193 0.00386129 0.00391761 0.00397279 0.00402797 0.00408315 0.00413711 0.00418831 0.00423837 0.00428842 0.00433848 0.00438733 0.00443364 0.00447887 0.0045241 0.00456934 0.00461344 0.00465521 0.00469591 0.00473662 0.00477732 0.00481691 0.00485436 0.00489083 0.0049273 0.00496376 0.00499918 0.00503268 0.00506518 0.00509769 0.0051302 0.00516167 0.0051914 0.00522021 0.00524902 0.00527784 0.00530568 0.00533196 0.00535732 0.00538269 0.00540805 0.00543246 0.00545546 0.00547762 0.00549977 0.00552193 0.00554319 0.00556322 0.0055824 0.00560159 0.00562078 0.00563906 0.00565628 0.00567272 0.00568915 0.00570559 0.00572118 0.00573586 0.00574975 0.00576363 0.00577752 0.00579059 0.00580285 0.00581439 0.00582593 0.00583747 0.00584824 0.00585834 0.00586772 0.0058771 0.00588647 0.00589507 0.00590314 0.00591054 0.00591793 0.00592532 0.005932 0.00593824 0.00594381 0.00594939 0.00595496 0.00595982 0.00596436 0.00596828 0.00597219 0.00597611 0.00597935 0.0059824 0.00598481 0.00598722 0.00598963 0.00599137 0.005993 0.00599404 0.00599508 0.00599613 0.00599654 0.00599694 0.00599674 0.00599654 0.00599634 0.00599551 0.00599475 0.00599344 0.00599214 0.00599083 0.00598894 0.0059872 0.00598491 0.00598262 0.00598033 0.00597745 0.0059748 0.00597163 0.00596846 0.00596529 0.00596157 0.00595814 0.0059542 0.00595025 0.00594631 0.00594182 0.00593769 0.00593308 0.00592847 0.00592386 0.00591873 0.00591405 0.00590887 0.00590369 0.00589852 0.00589283 0.00588764 0.00588199 0.00587635 0.0058707 0.00586457 0.005859 0.00585296 0.00584693 0.0058409 0.00583439 0.00582849 0.00582216 0.00581583 0.0058095 0.00580271 0.0057966 0.00579005 0.00578351 0.00577696 0.00576995 0.00576368 0.00575699 0.0057503 0.00574361 0.00573649 0.00573015 0.00572339 0.00571664 0.00570988 0.0057027 0.00569635 0.00568959 0.00568284 0.00567609 0.00566892 0.00566264 0.00565596 0.00564928 0.0056426 0.00563551 0.00562936 0.00562282 0.00561628 0.00560973 0.00560279 0.00559684 0.00559049 0.00558415 0.0055778 0.00557107 0.00556537 0.00555929 0.0055532 0.00554711 0.00554064 0.00553525 0.00552948 0.0055237 0.00551793 0.00551178 0.00550676 0.00550134 0.00549593 0.00549052 0.00548473 0.0054801 0.00547509 0.00547008 0.00546506 0.00545969 0.00545549 0.00545091 0.00544632 0.00544173 0.00543677 0.00543299 0.00542883 0.00542466 0.00542049 0.00541596 0.00541257 0.00540876 0.00540495 0.00540114 0.00539694 0.00539374 0.0053901 0.00538646 0.00538282 0.00537876 0.00537535 0.00537144 0.00536752 0.00536361 0.00535921 0.00535431 0.00534859 0.00534286 0.00533714 0.00533063 0.00532186 0.00531265 0.00530345 0.00529424 0.00528455 0.00525843 0.00522678 0.00519513 0.00516348 0.00512695 0.00511547 0.00511813 0.00512078 0.00512344 0.00514906 0.00523267 0.00530871 0.00538808 0.00545106 0.00549668 0.00548965 0.00548582 0.00548199 0.00547818 0.00547665 0.00550353 0.00553122 0.0055589 0.00557858 0.00559954 0.00561347 0.00563232 0.0056512 0.00567008 0.00568441 0.00574729 0.0058123 0.00587731 0.00594232 0.00599883 0.00609026 0.00616636 0.00624247 0.00631857 0.00632371 0.00630908 0.00628969 0.00627031 0.00625092 0.00624104 0.00604018 0.0058186 0.00559703 0.00537546 0.00504807 0.00456807 0.00407417 0.00358028 0.00308638 0.00262228 0.0023525 0.00207517 0.00179785 0.00152053 0.00127317 0.00117455 0.00106951 0.000964458 0.000859411 0.000773742 0.000667806 0.000556313 0.000444819 0.000333324 0.000255315
-0.0319471 -0.0319662 -0.0319853 -0.0320044 -0.0320235 -0.0320426 -0.0327435 -0.0336211 -0.0344038 -0.0351663 -0.0362245 -0.0372612 -0.0382516 -0.0392541 -0.0403135 -0.0412975 -0.0422586 -0.0432246 -0.0441653 -0.0451005 -0.0460064 -0.0469045 -0.0478105 -0.0487165 -0.0496216 -0.0505266 -0.0514184 -0.0523221 -0.0532308 -0.0541405 -0.0550609 -0.055966 -0.0568782 -0.05779 -0.0586995 -0.0596145 -0.0605159 -0.0614142 -0.0623138 -0.0632137 -0.0641098 -0.0649909 -0.0658709 -0.0667504 -0.0676281 -0.0685039 -0.0693621 -0.0702178 -0.071076 -0.0719347 -0.0727913 -0.0736253 -0.0744607 -0.0752955 -0.0761279 -0.0769615 -0.0777688 -0.0785742 -0.0793819 -0.0801901 -0.0809969 -0.0817725 -0.0825497 -0.0833264 -0.0841008 -0.0848767 -0.0856175 -0.0863576 -0.0870998 -0.0878426 -0.0885849 -0.0892873 -0.0899925 -0.0906972 -0.0913998 -0.0921053 -0.0927666 -0.0934287 -0.0940929 -0.0947575 -0.0954234 -0.0960402 -0.0966613 -0.097282 -0.0979007 -0.0985235 -0.0990925 -0.0996655 -0.10024 -0.100815 -0.101395 -0.101914 -0.102441 -0.102969 -0.103495 -0.104029 -0.104502 -0.104979 -0.105458 -0.105936 -0.106421 -0.106843 -0.10727 -0.107697 -0.108124 -0.108555 -0.108925 -0.109298 -0.10967 -0.110043 -0.110418 -0.110733 -0.111049 -0.111366 -0.111683 -0.112001 -0.11226 -0.11252 -0.11278 -0.113039 -0.113299 -0.113502 -0.113704 -0.113906 -0.114108 -0.11431 -0.114455 -0.114599 -0.114742 -0.114886 -0.115029 -0.115112 -0.115197 -0.115283 -0.115368 -0.115455 -0.115479 -0.115508 -0.115537 -0.115565 -0.115599 -0.115566 -0.11554 -0.115514 -0.115489 -0.115469 -0.115385 -0.115307 -0.115227 -0.115148 -0.115074 -0.114939 -0.114806 -0.114673 -0.114543 -0.114415 -0.114229 -0.114047 -0.113863 -0.113678 -0.113499 -0.113263 -0.113029 -0.112795 -0.112564 -0.112335 -0.112053 -0.111776 -0.111496 -0.111215 -0.110939 -0.110614 -0.11029 -0.109966 -0.109645 -0.109324 -0.108959 -0.108596 -0.108231 -0.107866 -0.107502 -0.107099 -0.106695 -0.106291 -0.105889 -0.105486 -0.105046 -0.104607 -0.104167 -0.103727 -0.103288 -0.102812 -0.102339 -0.101866 -0.101395 -0.100927 -0.100422 -0.099923 -0.0994218 -0.0989202 -0.0984252 -0.097896 -0.0973698 -0.0968441 -0.0963212 -0.095801 -0.0952513 -0.0947066 -0.0941592 -0.0936113 -0.0930682 -0.0924997 -0.0919326 -0.0913661 -0.090802 -0.0902389 -0.0896543 -0.0890737 -0.0884909 -0.0879076 -0.0873281 -0.0867303 -0.0861339 -0.085538 -0.0849442 -0.0843515 -0.0837438 -0.08314 -0.082534 -0.0819276 -0.0813249 -0.08071 -0.0800965 -0.0794834 -0.0788722 -0.0782621 -0.077643 -0.0770273 -0.0764097 -0.0757917 -0.0751771 -0.074556 -0.0739362 -0.0733167 -0.0726991 -0.0720823 -0.071462 -0.0708447 -0.0702259 -0.0696067 -0.0689905 -0.068373 -0.0677567 -0.0671407 -0.0665262 -0.0659126 -0.0653 -0.0646901 -0.0640789 -0.0634674 -0.0628585 -0.0622525 -0.0616476 -0.061043 -0.0604396 -0.0598372 -0.0592395 -0.0586444 -0.0580481 -0.0574516 -0.0568574 -0.0562697 -0.0556831 -0.0550967 -0.0545114 -0.0539269 -0.0533505 -0.0527763 -0.0522012 -0.0516259 -0.0510527 -0.0504888 -0.049926 -0.0493634 -0.0488015 -0.0482406 -0.0476903 -0.0471419 -0.0465928 -0.0460436 -0.0454961 -0.0449603 -0.0444255 -0.0438909 -0.0433568 -0.0428237 -0.0423031 -0.0417842 -0.0412647 -0.0407452 -0.0402272 -0.0397225 -0.0392188 -0.0387152 -0.038212 -0.0377097 -0.0372214 -0.0367345 -0.0362472 -0.0357599 -0.0352738 -0.0348023 -0.0343317 -0.0338612 -0.0333908 -0.0329213 -0.0324668 -0.0320134 -0.0315598 -0.0311062 -0.0306537 -0.0302163 -0.0297798 -0.0293434 -0.0289071 -0.0284715 -0.0280514 -0.0276321 -0.0272129 -0.0267936 -0.0263753 -0.0259723 -0.0255702 -0.0251681 -0.0247659 -0.0243647 -0.0239787 -0.0235936 -0.0232086 -0.0228237 -0.0224397 -0.0220707 -0.0217031 -0.0213354 -0.0209676 -0.0206009 -0.020249 -0.0198983 -0.0195478 -0.0191973 -0.018848 -0.0185126 -0.0181787 -0.0178447 -0.0175108 -0.0171781 -0.0168595 -0.0165418 -0.016224 -0.0159063 -0.0155896 -0.0152871 -0.0149851 -0.0146831 -0.0143809 -0.0140792 -0.0137927 -0.0135057 -0.013219 -0.0129324 -0.0126455 -0.0123741 -0.0121025 -0.0118308 -0.0115587 -0.0112865 -0.0110295 -0.0107721 -0.010515 -0.010258 -0.0100005 -0.00975776 -0.00951506 -0.00927229 -0.00902918 -0.00878627 -0.00855728 -0.00832794 -0.00809899 -0.00787014 -0.00764079 -0.00742511 -0.00720959 -0.00699396 -0.00677784 -0.00656197 -0.00635888 -0.00615549 -0.00595263 -0.00574988 -0.00554684 -0.00535586 -0.00516549 -0.00497501 -0.00478398 -0.0045935 -0.00441435 -0.00423547 -0.004057 -0.00387861 -0.00370059 -0.00353259 -0.00336564 -0.00319866 -0.00303152 -0.00286519 -0.00270857 -0.00255246 -0.00239646 -0.00224048 -0.00208515 -0.00193945 -0.00179387 -0.00164824 -0.00150238 -0.00135681 -0.0012214 -0.00108517 -0.000949325 -0.000813567 -0.000677046 -0.000551082 -0.000424682 -0.000298181 -0.000171228 -4.39876e-05 7.32834e-05 0.00019125 0.000308777 0.000426206 0.000544373 0.00065319 0.000762042 0.000870982 0.000980314 0.00108966 0.00119038 0.0012915 0.00139227 0.00149297 0.00159404 0.00168704 0.00178 0.00187303 0.0019664 0.00205971 0.00214536 0.0022314 0.00231712 0.00240276 0.00248873 0.00256748 0.00264618 0.00272497 0.00280407 0.00288311 0.00295528 0.00302784 0.00310007 0.00317223 0.00324471 0.00331077 0.00337678 0.00344286 0.00350925 0.00357557 0.00363581 0.00369639 0.00375669 0.00381693 0.00387744 0.00393224 0.00398707 0.00404195 0.00409707 0.00415221 0.00420182 0.00425182 0.00430158 0.00435129 0.00440132 0.0044461 0.00449098 0.00453591 0.00458108 0.00462633 0.00466655 0.0047072 0.00474761 0.00478796 0.00482868 0.00486468 0.00490081 0.004937 0.00497341 0.00500995 0.00504195 0.00507441 0.00510665 0.00513884 0.00517141 0.00519974 0.00522824 0.0052568 0.00528556 0.00531449 0.00533934 0.00536467 0.00538979 0.00541486 0.00544034 0.00546201 0.00548389 0.00550581 0.00552793 0.00555025 0.00556891 0.00558806 0.00560702 0.00562594 0.00564528 0.00566121 0.00567738 0.0056936 0.00571 0.00572662 0.00573998 0.00575383 0.00576751 0.00578116 0.00579524 0.00580626 0.00581757 0.00582891 0.00584042 0.00585219 0.00586102 0.00587036 0.00587955 0.00588871 0.00589832 0.00590518 0.00591236 0.00591957 0.00592693 0.00593459 0.00593961 0.00594515 0.00595055 0.00595593 0.00596177 0.00596515 0.00596888 0.00597264 0.00597652 0.00598075 0.00598259 0.00598497 0.00598723 0.00598946 0.00599219 0.00599268 0.00599355 0.00599445 0.00599546 0.00599684 0.00599606 0.00599584 0.0059955 0.00599514 0.00599529 0.0059934 0.00599194 0.00599051 0.00598918 0.00598826 0.00598539 0.00598308 0.00598066 0.00597822 0.0059763 0.00597257 0.00596926 0.00596596 0.00596277 0.00595999 0.00595547 0.0059515 0.00594745 0.00594337 0.00593981 0.00593464 0.0059299 0.00592519 0.00592056 0.00591636 0.00591061 0.00590541 0.00590014 0.00589485 0.00589009 0.00588388 0.00587812 0.00587239 0.00586672 0.00586151 0.0058549 0.00584885 0.00584274 0.0058366 0.00583101 0.00582411 0.00581768 0.00581127 0.00580493 0.00579906 0.00579192 0.00578536 0.00577874 0.0057721 0.00576601 0.00575875 0.00575198 0.00574522 0.00573852 0.00573231 0.00572496 0.00571819 0.00571138 0.00570455 0.00569827 0.00569095 0.00568413 0.00567732 0.00567056 0.00566431 0.00565703 0.00565034 0.00564361 0.00563687 0.0056307 0.00562357 0.00561698 0.00561039 0.00560384 0.00559782 0.00559088 0.00558453 0.00557814 0.00557175 0.00556594 0.00555927 0.00555315 0.00554703 0.00554094 0.00553541 0.00552903 0.00552326 0.00551746 0.00551166 0.00550645 0.00550045 0.00549503 0.00548961 0.00548419 0.00547937 0.00547375 0.00546874 0.00546374 0.00545873 0.00545433 0.00544916 0.00544462 0.00544007 0.00543548 0.00543155 0.00542679 0.00542263 0.00541855 0.00541448 0.00541103 0.00540666 0.00540306 0.00539944 0.00539565 0.00539267 0.0053885 0.00538492 0.00538169 0.00537854 0.00537598 0.00537165 0.00536884 0.00536585 0.00536207 0.00535979 0.00535447 0.00534922 0.00534623 0.00534377 0.00534134 0.0053323 0.00533056 0.00532765 0.00531971 0.00531867 0.00530435 0.00527979 0.00527528 0.0052755 0.00526477 0.00522187 0.00523345 0.00524382 0.00524909 0.0053172 0.00541067 0.00547423 0.00553781 0.00557579 0.00552949 0.00551027 0.00550323 0.00549619 0.0054887 0.0054927 0.00551024 0.00552841 0.00554657 0.00555828 0.00556954 0.00557059 0.00557165 0.0055727 0.00557363 0.00557432 0.00559915 0.0056281 0.00565714 0.00568618 0.00565956 0.00569771 0.00576035 0.00582337 0.00588638 0.00596637 0.00618064 0.00626965 0.00635211 0.00642822 0.00632129 0.00635715 0.00633776 0.00632131 0.00631185 0.00625646 0.00620991 0.00598834 0.00576677 0.00553262 0.00503901 0.00469938 0.00420548 0.00371158 0.00321501 0.00259619 0.00241455 0.00213723 0.00185991 0.00158259 0.00124277 0.00122365 0.0011186 0.00101356 0.000908508 0.000751311 0.000715294 0.000603803 0.000492311 0.000380819 0.000206787