# vtk DataFile Version 2.0
sampleSurface
ASCII
DATASET POLYDATA
POINTS 14144 float
-4 2.4359e-17 0.213991 -5 -7.03332e-17 0.24832 -5 -8.78968e-17 1.19622 -4 0
1.15978 -3 3.30872e-24 1.09917 -3 2.12034e-17 0.618363 -3 6.61744e-24 0.144377
1.00049 2.71051e-19 0.0377466 1.032 0 0.0376088 1.03198 -2.76472e-18 0.00937487 1.00051
0 0.00937499 5 2.37371e-18 0.0807757 5.0625 0 0.0807864 5.0625 -2.32186e-18
0.01875 5 -7.88861e-31 0.01875 6 -4.59957e-19 0.0809059 6.0625 0 0.0809118
6.0625 -1.44624e-18 0.01875 6 -1.97215e-31 0.01875 7 -9.10076e-19 0.0809817 7.0625
0 0.0809867 7.0625 -7.45877e-19 0.01875 7 0 0.01875 8 2.16089e-18
0.0810315 8 0 0.143317 8.125 0 0.152582 8.125 -3.0713e-18 0.0282186
8 -7.88861e-31 0.01875 9 -3.36839e-18 0.322117 9 -7.14776e-18 0.569424 9.5
-1.00974e-28 0.605111 9.5 1.54025e-18 0.112989 9 0 0.075 11 0
0.22013 10 -1.00974e-28 0.144966 10 -1.07672e-17 0.635459 10 0 1.12676
11 0 1.19261 12 0 0.268044 12 0 1.23454 13
0 0.290282 13 -5.04871e-29 1.254 14 -2.52435e-29 0.29776 14 0
1.26054 15 -9.61216e-18 1.26203 15 0 0.299458 -5 -1.05512e-16 2.15667
-4 0 2.11862 -3 0 2.06503 -3 -3.42204e-17 1.58106 -1.00144
3.38813e-21 1.00095 -1.00156 2.6834e-18 1.06317 -0.939104 0 1.06315 -0.939024 0
1.00083 0.00102175 -1.35525e-20 1.00018 0.00157824 -1.3146e-18 1.01503 0.0193806 -5.42101e-20 1.01315
0.0168153 0 1.00027 5 0 1.01287 5 -2.48715e-18 1.07512 5.0625
0 1.07524 5.0625 0 1.01299 6 0 1.01429 6 3.11075e-18
1.07657 6.0625 0 1.07664 6.0625 0 1.01435 7 0 1.01514
7 -1.05712e-18 1.07746 7.0625 0 1.07751 7.0625 0 1.01518 8
-4.76227e-19 1.07803 8 -1.97215e-31 1.14036 8.125 0 1.14821 8.125 -1.57772e-30
1.02371 8 -3.9443e-31 1.0157 9 9.89212e-18 1.312 9 -1.17997e-17 1.55979
9.5 -5.04871e-29 1.59144 9.5 0 1.09792 9 0 1.06435 10
-1.40371e-17 1.61778 10 -1.00974e-28 2.10872 11 0 2.1651 12 -5.04871e-29
2.20103 13 0 2.21771 14 2.52435e-29 2.22332 15 2.88049e-17 2.22459
-5 5.16988e-26 2.5257 -4.99992 -5.07475e-22 3.13073 -4.00007 0 3.09448 -3.00072
6.77626e-21 3.04721 -3.00013 -5.74204e-18 2.55367 -5 0 3.13073 1.00096 2.71051e-20
2.00453 1.00095 -5.55654e-18 2.06706 1.06354 0 2.06709 1.06354 -2.71051e-20 2.00457
4.0625 0 2.06715 4.05722 0 2.07057 4.0625 0 2.07058 5
-3.9443e-31 2.01012 5 2.08749e-18 2.07242 5.0625 0 2.07251 5.0625 0
2.0102 6 0 2.01137 6 -2.47753e-18 2.0737 6.0625 -9.86076e-32 2.07378
6.0625 0 2.01144 7 -1.2326e-32 2.01243 7 2.62598e-18 2.07479 7.0625
0 2.07485 7.0625 0 2.01249 8 1.04356e-18 2.08227 8 1.97215e-31
2.14458 8.125 0 2.14473 8.125 0 2.02011 8 0 2.01997
9 6.90882e-18 2.30391 9 -3.1382e-18 2.55156 9.5 -1.00974e-28 2.57778 9.5
0 2.08482 9 -2.52435e-29 2.05574 10 -1.30369e-17 2.59966 10 0
3.0906 11 0 3.13758 12 0 3.16753 13 0 3.18143
14 0 3.1861 15 2.34283e-17 3.18716 -5 0 3.13082 -5
-2.8246e-17 4.11557 -4.00039 0 4.08378 -3.0018 -5.42101e-20 4.04421 -3.00113 -5.96311e-18
3.54412 -2 0 3.5 -2 -5.16988e-26 3.28376 -2 0 3.5
1.25056 1.35525e-20 3.00462 1.15858 0 3.00379 1.14482 0 3.25366 1.25048
-1.35525e-20 3.25461 3 0 3 3 -1.28799e-17 3.25 3.25 0
3.25 3.25 0 3 4 0 3 4 -1.89592e-18 3.25
4.00002 0 3.25 4 1.29247e-26 3 5 3.23117e-27 3.00777 5
4.56496e-18 3.25741 5.25 0 3.25778 5.25 3.23117e-27 3.00815 6 8.07794e-28
3.00926 6 -8.18032e-18 3.25887 6.25 0 3.2592 6.25 0 3.00959
7 4.03897e-28 3.0105 7 -1.44313e-18 3.26012 7.25 0 3.26039 7.25
0 3.01077 8 0 3.01729 8 9.51297e-18 3.26675 8.25 -1.00974e-28
3.28251 8.25 0 3.03422 9 -1.13316e-17 3.54219 9.5 2.01948e-28 3.56373
9.5 0 3.07075 9 0 3.04688 10 1.44621e-17 3.58154 10
0 4.07248 11 0 4.11006 12 0 4.13402 13 0
4.14514 14 0 4.14888 15 -2.58351e-17 4.14973 -5 7.05274e-17 5.09312
-3.99993 0 5.08025 -3.00007 2.1684e-19 5.04778 -2.00009 1.35525e-20 5.00153 -2.00038
-3.91939e-17 4.50134 -2.00045 0 4.00114 -2.50021 -5.28549e-18 4.00124 2.00133 2.71051e-20
4.00354 2.001 2.18196e-17 4.50355 2.5 2.06795e-25 4.5 2.5 0 4
3 0 4 3 -3.80475e-17 4.5 3.5 1.03398e-25 4.5 3.5
0 4 4 -1.03398e-25 4 4 -4.06264e-17 4.5 4.5 0
4.5 4.5 -5.16988e-26 4.49997 4.00003 1.03398e-25 4 6 1.29247e-26 4.00805
6 0 4.00873 6.49942 -6.72084e-25 4.50825 6.5 0 4.50825 6.5
0 4.00867 7 0 4.00923 7 -1.07652e-17 4.5082 7.5 0
4.50825 7.5 0 4.00941 8 0 4.01411 8 8.79829e-18 4.51234
8.5 0 4.52411 8.5 0 4.0275 9.5 -4.03897e-28 4.05671 9
0 4.0375 9 -1.14067e-17 4.53281 9 0 5.04224 10 0
5.05436 11 -4.03897e-28 5.08255 12 0 5.10052 13 -1.00974e-28 5.10886
14 0 5.11166 15 -5.02169e-17 5.1123 -5 5.94956e-18 6.06208 -3.9997
-1.0842e-19 6.05349 -2.99997 -1.35525e-20 6.0012 -1.99997 0 6.00128 -0.999976 5.33156e-17
5.00167 -1.50007 -1.58565e-17 5.00158 -0.999953 0 6.00136 6.79777e-05 -7.72494e-18 5.00191
-0.49994 -3.70797e-17 5.00179 5.0325e-05 0 6.0014 1.00008 2.57769e-17 5.00203 0.500073
-1.10318e-17 5.00204 1.00007 0 6.0014 2.0004 -1.35525e-20 5.74227 1.69151 -1.35525e-20
5.00239 1.50013 -4.32868e-17 5.00186 2.00025 0 6.00134 2.99998 9.42159e-22 6
6.00005 5.29396e-23 5.00703 5.50018 2.11758e-22 5.00709 5.38228 2.11758e-22 5.00695 6.00006
0 5.03909 7 0 5.00703 6.5 -2.46811e-17 5.00709 6.96544 -7.41154e-22
6.00469 7.00005 -5.29396e-23 6.00469 8 2.81435e-24 5.02081 7.49917 1.22785e-25 5.00709
8.00001 -6.61744e-24 6.01366 8.99969 3.26672e-24 6.02817 2.00083 -2.71051e-20 5.00325 3
2.06795e-25 6 3 -1.58161e-18 5 2.5 0 5 4 0
6 4 -3.39991e-17 5 3.5 1.03398e-25 5 5.0014 0 5.00651
4.5 0 5 5 5.16988e-26 6 6.00046 0 6.00466 8
0 5.02048 7.5 0 5.00709 8.5 0 5.02072 9 3.23117e-27
6.02817 10 -1.61559e-27 6.03624 11 8.07794e-28 6.05503 12 -4.03897e-28 6.06701
13 0 6.07257 14 0 6.07444 15 3.70132e-17 6.07486 -5
-3.24312e-17 7.03104 -3.99982 0 7.02674 -2.99998 0 7.00061 -1.99998 6.77626e-21
7.00065 -0.999976 0 7.00068 2.48667e-05 6.77626e-21 7.0007 1.00003 -6.77626e-21 7.0007
2.00006 -6.77626e-21 7.00068 2.60139 0 7.00101 7.00005 0 6.16302 7.98805
3.30872e-24 7.00678 8 0 7.00683 8.99921 0 7.01409 3.00043 0
7.00122 4 0 7 5 0 7 6.00035 -6.77626e-21 7.00232
7.00003 0 7.00234 9 0 7.01409 10 0 7.01812 11
0 7.02752 12 0 7.03351 13 0 7.03629 14 0
7.03722 15 2.98328e-17 7.03743 -4 -7.90671e-21 8 -5 -1.84332e-21 7.99999
-3 6.79012e-22 7.99999 -2 8.81361e-22 7.99999 -1 -2.28726e-21 7.99999 7.32374e-09
8.87565e-22 7.99999 1 2.82544e-21 7.99998 2 2.41806e-21 7.99998 8 -1.70606e-24
7.99828 -4 0 8 -5 -5.16988e-26 8 -3 0 8
-2 -1.03398e-25 8 -1 0 8 6.95393e-09 0 8 1
0 8 2 0 8 3 -1.03398e-25 8 4 0
8 5 0 8 6 0 8 7 0 8
8 6.46235e-27 8 9 0 8 10 0 8 11
8.07794e-28 8 12 4.03897e-28 8 13 0 8 14 0
8 15 -5.04871e-29 8 -0.999964 1.05879e-22 0.01875 -0.999962 2.11758e-22 0.0792239
-0.937452 -2.11758e-22 0.0789879 -0.937452 -7.67624e-19 0.01875 -0.0102783 0 0.985301 -0.0157641
-6.77626e-21 0.985342 -0.0153844 0 0.990908 1.99923 1.13841e-18 0.0752478 1.99924 0
0.0183062 1.93651 -3.82181e-18 0.01719 1.93651 -1.35525e-20 0.072745 1.93761 -1.36881e-18 1.0004
2.00009 0 1.00025 2.00004 0 0.937788 1.93753 -2.71051e-20 0.937954 -0.93899
-3.38813e-21 0.938435 -1.00144 1.69407e-21 0.938476 0.000497998 -7.04731e-19 0.985218 -0.0147548 -6.77626e-21
1.00012 0.969069 -2.98156e-18 0.009375 0.969041 2.71051e-20 0.0378507 0.0157615 0 0.986027
-0.00102467 -2.20906e-18 1.93926 -0.000889311 0 2.00183 0.0617038 0 2.00198 0.0615898
0 1.93943 2.00014 3.97089e-18 1.06267 1.93771 0 1.06275 2 0
1.99999 2 -1.05879e-22 1.93749 1.9375 0 1.93749 1.9375 1.8036e-18 1.99999
1.00094 -4.03865e-18 1.94198 0.9383 0 1.94194 0.93837 1.35525e-20 2.00449 1.06352
0 1.94204 2.06193 -1.35525e-20 0.0765379 2.06193 -4.68917e-18 0.0186528 3 -1.81039e-18
0.0799561 3 1.32349e-23 0.01875 2.9375 1.22555e-18 0.01875 2.9375 0 0.079892
2.06256 -6.77626e-21 1.00015 2.06253 -6.77626e-21 0.937681 2.9375 -2.42535e-18 1.00249 3
0 1.00322 3 -6.61744e-24 0.941243 2.9375 0 0.940625 0.50047 6.77626e-21
0.027037 0.50044 -6.77626e-21 0.00937499 0.469159 0 0.00937489 0.469163 0 0.011084
-0.0309658 0 1.00178 -0.0288823 0 1.00037 -0.0311024 1.69407e-21 1.0004 -1
2.65061e-18 1.9375 -1 0 2 -0.9375 -8.27181e-25 2 -0.9375 0
1.9375 -0.0635166 5.74627e-18 2.00167 -0.0635912 0 1.93911 2.06259 0 1.06261
3 -3.76144e-18 1.06544 2.93751 -1.32349e-23 1.06468 2.0625 0 2 2.0625
5.29396e-23 1.93749 3 0 2 3 0 1.9375 2.9375 2.06795e-25
1.9375 2.9375 -5.82667e-18 2 -0.0282619 0 1.029 0.00353532 0 1.02858
0.000751005 5.29396e-23 1.43704 0.00111654 0 1.43671 0.000760055 0 1.43671 0.000285858
2.71051e-20 0.498141 0.000156034 0 0.484128 -0.0155977 0 0.48402 -0.0152721 7.86047e-19
0.496509 -0.501601 -3.38813e-21 0.500645 -0.439154 -6.77626e-21 0.500755 -0.439077 -1.35525e-20 0.469314
-0.439023 1.35525e-20 0.437969 -0.501413 1.86347e-18 0.43787 -0.501826 0 1.00057 -0.439211
0 1.00054 -0.439163 -3.38813e-21 0.937938 -0.501777 3.66935e-18 0.937998 -0.501723 1.69407e-21
0.563398 -0.439157 -3.38813e-21 0.563487 0.500489 -3.38813e-21 0.0380538 0.469222 6.77626e-21 0.038325
0.0160838 -1.6263e-18 0.498552 0.0160288 5.42101e-20 0.483976 0.486228 0 0.487123 0.491214
-1.0842e-19 0.502479 0.492708 5.42101e-20 0.504765 0.50055 0 0.496218 0.507957 0
0.037948 1.00164 0 0.502496 1.00002 -1.0842e-19 0.486158 0.981588 -5.42101e-20 0.484933
0.982133 1.0842e-19 0.488709 0.988978 0 0.498108 0.500602 0 0.984593 0.500842
1.35525e-20 0.98278 0.493365 -1.35525e-20 0.983045 0.510209 0 0.999714 0.515104 -5.42101e-20
0.998796 0.51601 1.35525e-20 0.981869 1.01493 0 0.501977 1.01456 0 0.487268
1.93852 7.96889e-18 0.50049 2.00137 -1.35525e-20 0.500497 2.00112 -1.35525e-20 0.437781 1.93848
0 0.437755 1.00241 1.0842e-18 0.515574 1.01421 5.42101e-20 0.514355 1.967 1.69407e-21
0.563175 2.00134 0 0.549347 1.93851 0 0.563152 -0.499479 1.21973e-19 0.0738711
-0.43682 -1.69407e-21 0.0700973 -0.436806 -1.79793e-18 0.0140688 -0.499477 2.11758e-22 0.0169442 0.531691
2.24972e-18 0.009375 0.531738 0 0.0376102 0.982897 1.0842e-19 0.495945 0.485506 0
0.983329 0.485307 -8.13152e-19 1.0033 0.498394 0 1.00212 2.00133 -3.38813e-21 0.563203
-0.00096927 0 1.5006 0.0614961 0 1.50042 0.061972 0 1.43772 0.500021
-2.71051e-20 1.50241 0.499988 0 1.47142 0.46837 0 1.47148 0.468409 -3.52366e-19
1.50251 0.504906 0 1.01011 0.511229 -1.0842e-19 1.01789 0.531565 0 1.50217
[...]
POINT_DATA 14144
FIELD attributes 1
p 1 14144 float
2.4733 2.2664 2.09403 2.26451 3.06063 3.51164 3.52115 4.57958 13.5034 13.6304 4.73524
-0.415536 -0.440567 0.436399 0.484598 -0.382718 -0.372172 0.235247 0.237137 -0.274228 -0.281999
0.189764 0.203847 -0.574401 -0.813534 -0.355435 -0.110856 -0.243824 -1.04327 -0.411335 -1.16052
-1.46184 -1.28912 0.802658 -1.68802 -1.2339 -0.0264348 0.462964 0.76299 0.402127 0.362308
0.17431 0.140985 0.0543798 0 0 1.73158 1.81872 2.18811 2.70548 14.0506
13.5393 14.5247 15.3157 81.1621 73.8801 71.535 77.8797 1.03447 1.03934 0.985325
0.978799 0.404433 0.419743 0.391282 0.374664 0.0393422 0.064876 0.0461328 0.0190697 -0.195713
-0.136692 -0.151259 -0.281674 -0.240943 -0.0876686 0.071419 -0.0303307 -0.209062 -0.204057 0.0482324
0.0816781 0.172708 0.132473 0.0684718 0.0255878 0 1.5756 1.31988 1.34087 1.40541
1.78215 1.31988 -11.5437 -10.4059 -10.2741 -11.3583 0.134937 0.129818 0.13067 0.174536
0.132624 0.127771 0.167923 0.0631015 0.0423596 0.036905 0.056693 -0.0176313 -0.026538 -0.0291196
-0.0207435 -0.0458395 -0.0497129 -0.050494 -0.0476282 -0.0436808 -0.0258773 -0.0391675 -0.0136902 -0.00219216
-0.0293764 0.0103181 -0.0247503 0.01532 0.0383309 0.0370037 0.0200411 0 1.31985 0.962216
0.950409 0.885364 1.10541 1.0031 1.18597 1.00311 -3.17236 -3.15322 -2.49852 -2.52957
-1.2097 -1.18781 -1.00172 -0.986615 -0.541927 -0.604714 -0.604708 -0.541926 -0.282945 -0.341006
-0.303464 -0.249951 -0.188315 -0.227449 -0.210108 -0.175408 -0.144441 -0.168617 -0.156665 -0.135011
-0.106741 -0.122854 -0.112943 -0.0967469 -0.0938513 -0.0736361 -0.0481908 -0.0691194 -0.0566085 -0.0756746
-0.0325149 -0.00318523 0.00542337 0.0026242 0 0.700675 0.678152 0.592028 0.391175 0.487537
0.715582 0.862504 -1.38678 -1.08714 -1.00377 -1.21173 -1.00683 -0.885427 -0.758757 -0.815729
-0.656803 -0.641394 -0.540235 -0.540235 -0.656795 -0.307119 -0.307158 -0.289997 -0.289945 -0.262629
-0.225715 -0.250896 -0.216911 -0.193676 -0.165423 -0.186844 -0.160129 -0.139164 -0.0941593 -0.115477
-0.139173 -0.152549 -0.105122 -0.0665818 -0.0377543 -0.0201652 -0.00958745 0 0.531059 0.508767
0.425775 0.25776 0.04798 0.243446 0.014733 -0.382505 -0.165845 -0.262811 -0.755088 -0.615828
-0.500245 -0.689437 -0.882949 -0.885962 -0.623305 -0.620328 -0.349917 -0.399226 -0.413581 -0.350183
-0.268321 -0.304597 -0.289124 -0.286648 -0.204125 -0.232179 -0.225406 -0.172434 -0.878084 -0.620328
-0.779697 -0.870352 -0.541359 -0.610114 -0.706997 -0.459959 -0.531552 -0.44409 -0.358173 -0.204118
-0.232119 -0.175696 -0.172417 -0.126489 -0.087501 -0.0561928 -0.0326006 -0.0154509 0 0.436977
0.41626 0.339443 0.194325 -0.0018977 -0.214906 -0.397311 -0.50711 -0.521699 -0.287781 -0.235827
-0.235126 -0.182865 -0.53138 -0.493728 -0.428425 -0.358609 -0.293788 -0.182823 -0.136897 -0.0976623
-0.0653729 -0.0394496 -0.0192505 0 0.386909 0.407017 0.312235 0.174833 -0.0065233 -0.200064
-0.366187 -0.471229 -0.237429 0.386909 0.407016 0.312235 0.174833 -0.00652336 -0.200063 -0.366187
-0.471228 -0.502679 -0.477365 -0.422497 -0.357936 -0.295123 -0.237433 -0.185668 -0.140058 -0.100973
-0.0684975 -0.0418343 -0.0205406 -0.00558569 18.4941 18.6825 20.1007 20.1662 88.425 88.834
86.7264 -18.1318 -17.443 -19.8835 -20.6541 -0.683481 1.99147 0.651019 -2.94915 16.0797
14.8957 87.6164 83.2354 -2.3442 -2.44971 83.4139 -0.569503 -0.858749 -1.77213 -1.61265
2.98408 1.76732 -4.19099 -4.22125 -4.72438 -4.64592 -12.8541 -13.0157 -11.6544 -12.5976
-15.5867 -14.8745 2.60297 3.51482 3.32579 2.45373 3.2019 2.39568 4.31146 4.20952
4.30856 4.42344 -27.5144 -27.2751 -23.3 -23.3272 82.5048 83.0446 83.0148 4.47784
4.08112 4.10144 4.5249 -0.0279879 0.365178 3.77197 4.26772 4.3912 -3.76521 -3.75433
-0.410252 -0.264348 -0.359934 -0.508947 72.4111 68.4314 11.1688 11.1726 11.186 80.2478
79.0711 71.81 73.0882 44.7738 53.2489 56.3505 57.6557 46.6482 31.9937 36.6641
40.2232 34.7032 43.1007 50.1466 -27.6678 -23.7689 85.0836 84.7833 7.10381 6.61549
6.86547 10.7236 -28.368 -28.3475 -28.5546 -28.4533 -28.4325 -28.3747 -35.5001 -33.0884
-35.0301 -40.9877 -33.732 -30.4252 -28.3533 -28.5998 -17.7939 -15.2607 -16.0962 -18.4645
-28.2886 -28.264 -13.6685 -12.855 -14.9099 41.4236 47.5162 45.7525 40.4702 -30.258
-30.6106 -28.373 -37.0624 -56.4381 -58.1019 -12.1731 7.90047 5.61776 8.88862 -42.8525
-52.4618 -50.7431 -41.9826 -47.189 -36.2612 -43.9514 -50.9676 -0.317302 3.8475 11.3537
-2.54886 -1.79866 -2.79452 -3.48362 -15.1928 -14.3238 -12.412 -12.9185 -36.4066 -40.0307
-33.3448 -31.0537 -0.656109 13.5851 6.96147 19.9115 22.31 22.2909 20.583 93.5998
92.5158 92.7117 90.6258 96.8486 95.5134 26.7099 23.8711 29.2765 32.4237 34.1485
43.0722 29.847 29.3715 40.3936 2.88247 -5.85746 -28.3579 -32.2317 64.6985 68.5094
71.0723 72.3454 67.4855 66.1268 57.9513 67.5787 82.4238 68.0004 -26.517 -26.0808
-26.0184 -26.1284 -26.2774 -26.5858 -69.4375 -68.1735 -67.1224 -67.5646 92.3221 -26.5279
-25.7662 -26.0258 -29.1355 -29.1936 -29.2409 -29.1861 80.3259 82.0286 108.837 111.325
102.558 -26.9023 -24.5037 -24.6743 -27.0534 -20.494 -19.9412 -3.93964 -8.52505 -61.0867
-65.0184 -84.4704 -77.2067 -71.7207 -83.8925 -16.2166 -17.4516 -81.1069 -89.4746 19.843
19.5927 17.2018 15.254 17.5391 17.1673 17.1948 17.5888 91.4207 92.2799 91.6487
91.3453 90.1134 89.5416 87.8521 86.692 88.8679 -41.247 -41.5876 -41.3569 -11.4689
-9.84247 -0.0977484 -1.12171 -0.404195 29.0527 32.8393 11.216 12.8647 9.61722 13.6123
11.7893 12.094 14.1506 59.3046 68.7148 69.8224 113.234 118.46 129.094 123.901
104.209 109.512 81.2498 79.6025 75.0834 76.587 16.997 16.4262 15.4341 16.9774
15.507 16.3709 -26.73 -26.7505 -14.3041 -13.5853 -12.7068 -12.9899 15.0568 -14.8967
-16.2051 -59.6715 -59.9767 -60.4589 -5.31561 -5.63982 -6.82638 -6.80249 -6.13491 -14.1934
-13.495 -14.9576 91.6541 -41.9586 -42.3077 -41.1805 -27.0974 -41.6896 -42.1424 -28.2896
-26.5098 -24.7629 -29.1545 -35.4883 -35.6307 -35.5414 -27.8383 -26.8998 -27.2519 -27.2634
-27.8406 -29.212 -29.3294 -29.2659 -28.9571 -29.08 -29.23 -27.2705 -27.3069 -27.9092
-29.1389 -29.123 -29.0992 -29.1237 -25.5439 -25.9563 -29.0632 -28.9821 -26.3078 -28.6908
-6.08561 -7.49003 -5.06154 -4.47816 -27.1103 -27.551 -22.6604 -23.0703 -24.0661 -10.4115
-9.12363 -6.57851 94.0026 84.5344 -29.2991 -29.3368 16.4186 -10.587 -20.9511 14.4542
4.58429 -5.23573 -0.450644 -29.0709 -29.0399 -29.0787 -29.1447 -28.1547 -29.2364 3.83961
6.15965 1.89945 -0.820864 -9.9602 -4.12954 -3.30949 -2.19465 -7.39182 -24.3127 -22.8227
-26.7875 -5.97026 -14.1562 -52.8135 -22.6212 -34.2132 -10.9978 -15.6427 -20.6488 -18.5443
-13.9425 -14.4021 -4.63431 -3.82537 -6.10657 -7.03406 6.61821 6.71853 8.05166 8.19309
18.3973 15.6808 15.6278 6.02159 5.34356 6.47535 7.17857 11.9406 15.3259 12.9204
36.4927 36.2487 36.5124 23.6343 26.007 29.3356 27.5724 -1.06428 -1.86536 -1.2834
-1.12617 -1.78871 -2.23403 -1.78582 -3.12019 -4.08574 -4.05561 -3.75588 -2.85481 -10.4743
36.0162 17.7135 19.4379 19.6763 18.175 38.4563 39.4646 17.6983 19.1602 29.8927
30.3798 30.314 37.4392 77.5435 81.6669 93.5484 88.982 138.793 127.137 113.242
121.238 130.207 -22.8193 -27.1447 -69.6663 -57.6778 -41.0794 -39.2849 -36.1476 -35.0246
-41.0468 -66.7838 -65.854 -64.2504 -64.4758 -46.3994 -46.2147 -48.8162 -50.0819 -50.0416
-28.1002 -27.4951 -24.8725 -21.9233 -21.0289 -23.8843 -45.6983 6.41356 4.19768 3.34094
5.51854 -22.2513 -22.0289 -24.1008 -2.91305 -2.34529 57.7737 50.2928 53.4061 56.4905
14.7342 6.2399 28.1805 -43.3571 -47.7809 -29.1261 -29.1187 -43.4662 -22.2913 5.41692
3.25314 -8.97112 -10.1452 -9.06032 -8.05586 -30.6528 -35.874 -26.0439 -9.76183 -11.0609
-31.3156 -40.2509 -58.3174 -65.4187 -33.2893 -40.6891 -42.5856 -42.3449 -37.5058 -34.1324
-18.9405 -18.2168 -21.5638 1.80072 3.01632 1.74322 0.657304 -2.55289 -1.85735 -28.3175
-26.8562 -20.3003 -13.08 -14.1596 -1.78555 -0.948827 -2.07045 -2.92587 -3.53264 -2.46195
-4.63798 -5.61908 5.0621 5.01974 5.09654 5.11196 0.552166 57.8169 48.0732 41.5176
55.9508 40.9856 40.9442 44.6164 45.643 5.76843 6.03646 5.92911 5.93913 5.75442
-27.647 -28.8882 -28.7643 -27.528 -28.4677 -28.7187 -28.6981 -28.5522 -27.6473 -25.9164
-25.524 -26.8681 -27.2621 48.4075 54.5584 27.2578 35.2201 33.0739 -1.758 -0.976724
5.21925 5.28018 0.93909 1.55571 1.41153 0.757047 36.652 28.5283 27.2495 28.4617
35.3656 -53.857 -53.9601 -53.5821 43.0699 31.9198 41.8652 65.1329 62.2367 47.8945
61.5858 60.8429 60.7807 47.0522 45.7841 11.8349 0.924911 10.9869 37.0555 48.7775
63.3191 64.3488 106.605 115.699 97.7334 42.7866 46.5973 47.2716 46.5353 64.3522
65.3383 6.05397 5.32934 5.80022 5.13134 2.83698 8.68167 10.2018 10.3715 9.16886
6.9402 5.63971 -29.2102 -28.123 -28.6425 -29.4712 -27.3533 -27.3615 -27.3422 -27.3386
6.18114 8.08454 -54.0104 -53.9703 -4.86614 -2.37966 3.97578 7.68987 -31.0393 -31.114
-30.5736 -27.7001 -37.5572 -39.1854 -39.5935 -20.7731 -23.7101 -26.1247 -26.341 -36.4499
-35.0447 -31.5002 -32.1307 -32.1415 -33.2318 -33.0783 -33.4147 -33.6691 -11.9191 -17.4005
-12.7846 -8.52463 -33.4608 -34.1835 -34.9358 -34.2437 -47.0403 -44.9288 -43.2746 -44.9606
-26.5078 -26.3294 -25.0344 -25.1872 -25.2294 -25.995 -26.3855 -33.458 -32.8663 -33.581
-29.3018 -28.3578 -29.6862 -30.2114 57.1362 57.3084 64.97 65.1095 63.6765 68.6213
71.2277 40.8892 39.9895 65.8389 -29.6316 -29.4226 -29.4987 -29.4986 -54.8338 -54.6398
-52.3279 -52.625 -52.5492 -9.88534 -11.1532 -14.897 -12.9811 -31.2399 -30.5955 -30.2785
-24.7335 -29.5186 -29.3198 -25.4977 -29.2335 -28.2771 -28.1514 -26.8601 -27.178 -26.512
-19.435 -19.3751 -18.7052 -16.3881 -32.8011 -53.0215 -53.238 -3.64933 -6.44043 -13.9248
-14.0047 42.0685 -18.8641 -21.8082 -21.2312 -18.3778 -31.9093 -35.2519 -32.114 -31.1419
-39.2533 -21.3303 -77.4439 -39.1137 -33.6337 -33.7454 -39.6981 18.0506 22.2688 27.848
23.5181 22.542 27.7139 38.4571 42.8097 46.7436 33.7556 33.2706 5.44016 9.60025
8.37011 4.14481 -33.7204 -31.8726 -29.2907 -26.7018 -32.966 70.6029 48.85 38.675
45.7631 56.2352 92.2735 97.7599 -47.2024 -45.9825 -47.1927 -25.9896 -18.1198 -20.0644
-22.1857 24.9139 21.2641 20.8973 25.2565 -25.5698 -25.8094 -27.3433 122.924 126.327
115.598 110.758 5.74997 5.3196 12.6099 3.80848 2.26863 5.19496 4.6218 4.48284
5.28027 6.58469 123.753 127.766 4.31451 5.92514 141.304 149.424 159.526 152.929
-4.14901 -7.11314 -27.6794 -27.7054 -27.6895 -65.2272 -64.1732 -64.5266 -62.7789 -62.7067
-44.6855 -47.4996 -33.8328 36.0052 -42.949 -41.8036 61.2955 61.6948 136.067 135.21
150.562 161.643 143.518 0.550927 1.55985 -27.3487 -27.6361 -27.5132 -11.5844 -10.2555
-12.1503 -13.6316 -11.1331 -17.7805 -21.0441 -18.886 -26.0443 -26.6261 -15.2038 -12.9398
-51.2972 -52.7245 -52.9572 -50.3343 -49.528 -51.3684 -53.905 -64.8552 -61.3303 -49.5074
-50.8066 -48.2055 -49.4617 -53.7577 -57.8041 -57.3714 -30.0909 -29.5108 -29.5319 -40.4685
-46.1817 -25.0949 -28.1977 -23.3339 -30.9191 -37.2951 -39.2922 4.12072 6.52146 7.41228
5.70804 -9.15145 -12.3218 -21.5067 -20.4136 4.04859 3.0085 -16.842 -4.24784 34.8854
31.8472 23.0094 29.1383 55.0672 43.1702 49.8403 50.7677 36.2802 56.7634 3.73926
6.21616 0.662894 2.91219 1.84082 -1.0852 -3.03832 6.71753 7.13495 7.64504 2.98005
-27.2378 -25.013 -29.1949 -28.3393 -28.4161 -25.0393 -28.5058 -29.0906 -27.7373 -35.3658
-32.9779 -28.409 -29.1287 -33.5066 -38.7918 -16.6328 -19.35 -29.2605 -31.6072 -18.4612
-5.31765 -1.53416 0.342746 -1.52716 8.36101 7.77749 -4.8398 6.15706 0.236772 8.74156
2.01826 -5.32505 22.5383 17.9209 17.3125 24.9185 75.3157 79.5726 84.9024 79.0486
72.8968 75.3689 77.0682 75.5982 -18.6793 -27.9207 -28.2962 -21.0836 6.56789 7.898
3.25529 4.55685 2.86884 4.92913 2.93118 -27.8496 -15.4733 14.2832 14.646 17.8651
17.9827 -26.6176 -27.1928 -27.3555 -27.359 -27.3422 -16.2201 -18.0771 -16.5253 -15.0132
6.67178 14.3772 -19.0246 -20.474 -18.474 -18.8875 21.7211 18.0271 39.6445 38.7451
39.3363 1.45629 0.115686 -1.32185 -0.556191 -54.9479 -55.2636 -55.0421 125.826 158.023
171.685 143.973 -27.2886 -20.5026 -37.1264 93.0573 121.348 104.446 104.208 91.5657
-1.06858 -1.44845 -1.72097 -1.37068 69.2645 -12.8347 -12.3983 -9.10102 -3.28983 -3.30008
-30.89 -30.3008 -15.8767 -16.0811 -20.2268 -8.02156 -8.64768 -8.3455 -7.34583 -8.3127
-7.61041 -8.01343 -8.72809 -34.5302 -33.9435 -34.2708 -35.2828 -36.5649 -37.5584 -38.5147
-37.1267 -35.4075 -36.0158 -26.3318 -39.238 -39.2133 -38.6553 -27.8628 -27.9437 -27.8343
-39.7052 -39.9 -33.5755 -28.2885 -28.224 -28.489 -28.513 -37.7942 -29.0163 -28.5327
-28.2594 -28.63 -29.421 -28.9612 -31.7148 -30.8994 -31.0726 -31.005 -31.918 -33.1586
-31.7114 -29.3103 -29.0446 -29.3212 -29.46 -33.1016 -33.1534 -29.9506 -30.1167 -31.1364
-30.7436 -30.3435 -29.3991 -28.9803 -32.8654 -31.8988 -21.378 -15.1686 -46.1998 -45.8183
-45.9709 -46.3396 -28.9979 -28.9351 -28.9844 -29.0588 -28.8506 -29.0297 -28.8601 -28.8746
-48.5167 -47.8219 -46.2747 -33.4597 -33.9682 -28.8088 -28.2112 -28.5249 -42.61 -42.4674
-44.1239 -16.5022 -19.0028 -22.8948 -18.5304 -14.5871 -16.0065 -17.4921 -19.6535 -14.8872
-13.178 -17.7124 -18.4132 -21.0173 -15.8328 -24.1774 -29.7496 -26.0342 46.0572 -3.02995
4.1365 -6.07376 115.176 116.321 71.5709 67.052 -27.8828 -32.9604 -34.0125 -25.3122
-22.8092 -20.3474 -23.9953 -27.6174 -27.4992 -27.6475 -28.9812 -29.2074 -27.3585 -29.7196
-29.2853 -27.2495 -29.4931 -18.7625 -40.1072 -41.5068 32.3178 42.019 37.8088 24.4936
14.7471 -98.3922 -53.456 88.1829 -10.1078 -7.56413 -0.922945 63.9869 -4.20946 -30.2187
-9.64342 -30.6382 -30.6982 -27.9569 -28.8459 -28.9459 -29.965 -28.9736 -27.4756 -27.6299
-28.3925 -28.4303 -48.6702 -31.9926 -33.0767 -42.4584 -27.8324 -27.976 -17.0132 -19.8795
-15.438 -31.1166 -17.9391 -51.7971 -55.1148 -51.4706 -51.6904 -21.9063 -36.2375 -34.4197
5.08429 6.39373 -10.208 -10.8206 3.9791 -3.53473 -3.74787 -2.66192 -3.56314 -3.51484
-7.09361 -4.88983 -1.93892 4.8991 53.3315 38.0269 39.0191 55.9219 13.0796 12.6809
11.7647 3.36649 75.5164 69.0901 41.512 39.1082 38.0009 45.1204 42.4686 47.8192
51.8662 29.0621 28.0668 100.74 101.559 100.413 97.1354 -16.2697 -12.5178 -12.5703
-16.3681 -2.99306 -3.33943 -2.5071 -13.5795 -15.1776 106.76 61.5142 57.037 65.1603
-35.5971 -5.30656 -12.6761 -12.1771 -5.01286 -20.3777 -16.8791 -21.3843 -21.3975 68.3236
67.4746 69.2653 69.8883 69.1625 56.0197 59.414 65.714 9.92142 9.80382 9.85148
25.4653 20.1086 18.4952 24.6353 75.7457 67.9798 69.7689 53.4398 53.3029 57.1206
57.6697 49.4633 56.3577 39.4539 38.7863 45.3048 -31.6134 -31.312 -21.3797 -24.2302
-23.0404 78.5092 88.1067 85.3911 85.4785 69.8844 74.2375 11.3755 10.9817 5.44382
6.04763 11.6625 5.81417 2.58764 2.78724 5.36808 5.56162 1.75884 -31.908 -29.2537
-29.4133 -29.4604 -29.2216 -29.064 -28.6687 -28.8832 -29.2333 17.4365 18.269 11.837
10.9614 -22.4477 -28.2128 -28.2191 -28.216 -28.2812 -28.4722 -28.4471 -28.1783 -34.0461
-32.0161 -32.4086 -33.6012 -26.144 -1.67515 67.6036 53.6795 58.0716 65.5569 -33.1227
-33.1487 -33.5097 -33.3884 -33.4777 -34.6686 -28.2068 -28.1957 -28.2101 -51.0171 -55.1233
-61.6262 -47.6586 20.5747 -1.23733 1.97327 -27.2691 -28.852 -30.8614 -28.7656 -28.954
-29.6123 -29.7629 -28.2893 -63.016 -72.1868 -54.7363 -55.1622 -20.6329 -16.101 -12.9765
-16.8953 -9.15695 -5.87699 -29.1055 -29.6094 -20.777 -17.739 1.14814 -8.80476 -8.76237
-1.51424 10.9087 11.3087 4.95574 2.0434 13.1029 11.1556 10.0828 12.8199 75.961
61.2391 55.5295 63.7497 69.1229 73.8984 94.6796 -6.41347 20.9395 20.8246 22.4346
22.6892 24.7183 18.9728 16.8631 16.9928 -23.1389 -25.4641 -40.3451 -40.6428 -39.7496
-35.4154 -34.9654 17.1888 25.452 16.5128 10.9196 100.684 77.2567 76.9856 98.7415
129.6 118.104 112.881 -24.6668 -24.5741 -24.7093 8.81553 6.06823 10.9653 14.1052
117.62 127.912 154.114 107.56 122.184 -19.5571 -19.4609 -23.2413 -23.4364 -16.761
-20.8303 -21.1003 -25.9944 -21.7191 -40.7314 2.73304 2.67463 -24.1674 -23.4057 -17.5261
-23.406 -18.0836 -12.2152 -9.2164 -17.164 -21.8343 12.9427 67.9236 87.9033 59.1132
65.0759 66.5729 62.9457 -7.02112 -5.50371 -6.69629 -7.85988 24.9744 35.0725 79.8646
59.759 41.708 53.1223 74.4755 78.2805 80.6346 81.4937 80.998 -24.7895 9.23532
13.6561 10.5353 8.018 9.84611 8.86119 7.84121 8.58937 -23.997 -16.22 15.1074
14.9093 15.0476 15.1681 10.9654 15.2573 8.36067 12.2045 14.4797 10.4802 2.30519
2.41602 -0.724546 -0.967476 20.0705 19.7389 20.1317 15.0305 16.1472 16.2499 15.5105
20.0954 18.6315 19.3478 -2.28803 28.4505 40.4268 39.3796 28.7525 -6.13906 -1.32643
-1.59271 -5.8851 -6.20824 -4.97905 -15.5936 -15.5998 -13.8012 33.4864 29.2977 43.9438
34.4098 -10.8235 -10.6856 -11.259 -11.7346 -16.7997 -14.8639 -18.1929 -18.172 -12.9167
-12.2437 -15.671 -17.3174 -13.6939 -11.9093 -16.2557 -17.8136 -11.466 -15.1082 -8.27412
-7.21609 -7.23812 -10.4426 15.2114 15.1611 48.7294 20.8059 67.0864 77.0476 71.3973
38.4652 59.3616 -43.1814 -44.0807 -42.2999 -42.4143 -27.7696 -27.4688 -35.4233 -35.6109
-35.1408 -34.9484 -34.556 -33.8614 -34.4706 -35.0705 -29.879 -29.7817 -29.6871 -30.6614
-30.4165 -30.1827 -30.6016 -29.0617 -45.8753 -24.7222 -25.3601 -24.3735 -25.7622 -27.4112
-23.9529 -23.3776 -19.7599 -24.8003 -26.5847 -26.9565 -28.8669 -29.4483 -29.9233 98.963
53.92 32.1519 32.8274 36.594 99.6624 100.483 75.2045 -32.3916 -32.6139 -26.012
-33.7491 19.4695 18.6791 19.1561 18.0617 20.563 26.816 26.8072 26.9541 26.942
16.0222 15.1075 16.1959 17.9337 18.8204 17.2458 15.7956 16.5969 -40.6805 25.354
-54.1065 -54.3558 -55.4804 -53.8619 -53.1511 -53.3696 -54.9394 -53.6805 14.621 37.3204
-1.31659 -15.9068 24.1293 40.4989 -8.6078 -1.30976 9.57243 15.2999 85.2985 -25.5751
-23.4774 -36.8287 -37.031 -36.7439 -28.5409 -19.7517 -20.5149 -20.1486 -17.5093 -17.3278
-9.82956 -10.0121 -4.78503 -5.97039 -2.95659 -2.92561 7.08034 3.51492 1.73816 3.68082
38.4184 34.8618 30.1112 34.6745 37.6302 41.6728 111.95 114.297 115.876 109.568
108.882 135.257 141.056 132.807 130.13 109.949 111.636 118.078 118.006 -29.129
-28.6576 -28.586 -29.0608 -29.3275 -51.1426 -59.506 -47.389 -14.6534 -16.7698 -7.48322
-4.79653 -9.1171 -11.3636 -5.90058 -8.5371 -11.7883 -9.52007 26.6485 26.6492 26.6343
26.3011 -28.6365 -2.9806 -3.63091 -1.51733 -3.56337 0.701839 0.380713 -0.789576 -0.369137
59.6386 63.5772 23.3108 17.6913 32.9382 32.5438 44.4254 48.0418 54.4716 62.5545
69.7178 58.9854 69.3113 65.6633 53.7217 34.8192 30.8381 51.2951 46.963 43.4992
-36.254 -36.6142 -36.6336 -36.3535 -38.4821 -40.1413 -39.2567 -46.3991 -45.2053 -45.6408
-176.616 -220.643 -226.17 121.879 88.0453 112.667 112.476 87.2879 55.7832 55.4244
56.5273 51.2963 51.4773 53.0854 51.9181 66.2157 74.3952 81.0956 70.6697 107.887
86.0305 81.0823 99.3821 105.717 91.0993 118.201 118.514 89.7798 113.845 114.878
9.62368 5.14987 4.27958 4.07423 4.03014 4.66503 3.85143 3.06342 4.75092 4.77203
6.10289 7.00355 7.2732 6.04842 6.39557 5.10261 -28.1709 -28.0418 -28.0708 -28.3424
-28.2885 -28.8354 -28.4697 12.5188 11.4941 15.1465 16.2113 -51.9217 -51.2116 -52.4194
-52.7586 -52.9602 -52.6159 -55.0729 -54.9352 -54.2617 -54.3624 -29.4222 -29.5242 -29.5241
-35.334 -34.9322 -34.8749 -35.584 -41.0169 -37.2719 -39.0643 -41.5689 -37.2126 -33.6102
-34.3995 -34.3356 -33.9535 -33.2841 -34.0365 -28.3961 -28.4997 -28.306 -31.2756 -30.4412
-22.918 -24.1999 -23.4145 -22.1601 116.041 129.387 83.105 110.853 104.246 65.1843
71.1048 83.4666 74.403 64.8578 59.6161 50.0018 47.0752 38.5211 36.6619 43.3003
47.6083 53.0502 -28.225 -55.234 -54.7727 -28.5043 -28.16 -28.4144 -29.5248 -30.3359
-54.8575 -46.2181 -49.4399 -48.7636 -137.21 -159.963 -219.695 -136.946 -42.0268 -60.1283
-64.7657 -46.0287 17.7617 17.9639 -37.517 -37.8428 -25.9447 -30.0778 -18.0267 -24.0977
-20.5727 -5.03624 -2.05176 -6.77683 15.4518 5.25019 -8.9365 0.224908 9.44558 14.452
15.2615 23.2433 19.8635 21.2297 24.8112 15.7256 15.2707 48.3737 51.2056 29.9511
28.4264 42.8846 48.4361 43.8086 30.9545 24.4807 23.3126 23.1356 27.8634 29.6166
-9.185 -10.3976 -8.42788 -10.3378 -14.1586 -1.89496 -0.02199 -48.416 -50.2244 -51.3678
-44.3578 -44.1221 10.2056 7.11741 12.2577 13.4203 10.2211 8.31898 7.12571 5.59529
5.69045 25.2373 24.7588 25.1625 14.6684 15.653 15.6545 7.1135 6.94795 8.58918
14.3308 12.0005 16.1107 16.49 0.748006 2.96314 0.640115 -24.683 -54.3795 -54.4021
-54.4286 -65.2761 -65.7709 -63.5834 -64.2459 -55.3018 -59.7944 -60.2447 -60.1939 -59.2938