# vtk DataFile Version 2.0
sampleSurface
ASCII
DATASET POLYDATA
POINTS 14144 float
-4 2.4359e-17 0.213991 -5 -7.03332e-17 0.24832 -5 -8.78968e-17 1.19622 -4 0
1.15978 -3 3.30872e-24 1.09917 -3 2.12034e-17 0.618363 -3 6.61744e-24 0.144377
1.00049 2.71051e-19 0.0377466 1.032 0 0.0376088 1.03198 -2.76472e-18 0.00937487 1.00051
0 0.00937499 5 2.37371e-18 0.0807757 5.0625 0 0.0807864 5.0625 -2.32186e-18
0.01875 5 -7.88861e-31 0.01875 6 -4.59957e-19 0.0809059 6.0625 0 0.0809118
6.0625 -1.44624e-18 0.01875 6 -1.97215e-31 0.01875 7 -9.10076e-19 0.0809817 7.0625
0 0.0809867 7.0625 -7.45877e-19 0.01875 7 0 0.01875 8 2.16089e-18
0.0810315 8 0 0.143317 8.125 0 0.152582 8.125 -3.0713e-18 0.0282186
8 -7.88861e-31 0.01875 9 -3.36839e-18 0.322117 9 -7.14776e-18 0.569424 9.5
-1.00974e-28 0.605111 9.5 1.54025e-18 0.112989 9 0 0.075 11 0
0.22013 10 -1.00974e-28 0.144966 10 -1.07672e-17 0.635459 10 0 1.12676
11 0 1.19261 12 0 0.268044 12 0 1.23454 13
0 0.290282 13 -5.04871e-29 1.254 14 -2.52435e-29 0.29776 14 0
1.26054 15 -9.61216e-18 1.26203 15 0 0.299458 -5 -1.05512e-16 2.15667
-4 0 2.11862 -3 0 2.06503 -3 -3.42204e-17 1.58106 -1.00144
3.38813e-21 1.00095 -1.00156 2.6834e-18 1.06317 -0.939104 0 1.06315 -0.939024 0
1.00083 0.00102175 -1.35525e-20 1.00018 0.00157824 -1.3146e-18 1.01503 0.0193806 -5.42101e-20 1.01315
0.0168153 0 1.00027 5 0 1.01287 5 -2.48715e-18 1.07512 5.0625
0 1.07524 5.0625 0 1.01299 6 0 1.01429 6 3.11075e-18
1.07657 6.0625 0 1.07664 6.0625 0 1.01435 7 0 1.01514
7 -1.05712e-18 1.07746 7.0625 0 1.07751 7.0625 0 1.01518 8
-4.76227e-19 1.07803 8 -1.97215e-31 1.14036 8.125 0 1.14821 8.125 -1.57772e-30
1.02371 8 -3.9443e-31 1.0157 9 9.89212e-18 1.312 9 -1.17997e-17 1.55979
9.5 -5.04871e-29 1.59144 9.5 0 1.09792 9 0 1.06435 10
-1.40371e-17 1.61778 10 -1.00974e-28 2.10872 11 0 2.1651 12 -5.04871e-29
2.20103 13 0 2.21771 14 2.52435e-29 2.22332 15 2.88049e-17 2.22459
-5 5.16988e-26 2.5257 -4.99992 -5.07475e-22 3.13073 -4.00007 0 3.09448 -3.00072
6.77626e-21 3.04721 -3.00013 -5.74204e-18 2.55367 -5 0 3.13073 1.00096 2.71051e-20
2.00453 1.00095 -5.55654e-18 2.06706 1.06354 0 2.06709 1.06354 -2.71051e-20 2.00457
4.0625 0 2.06715 4.05722 0 2.07057 4.0625 0 2.07058 5
-3.9443e-31 2.01012 5 2.08749e-18 2.07242 5.0625 0 2.07251 5.0625 0
2.0102 6 0 2.01137 6 -2.47753e-18 2.0737 6.0625 -9.86076e-32 2.07378
6.0625 0 2.01144 7 -1.2326e-32 2.01243 7 2.62598e-18 2.07479 7.0625
0 2.07485 7.0625 0 2.01249 8 1.04356e-18 2.08227 8 1.97215e-31
2.14458 8.125 0 2.14473 8.125 0 2.02011 8 0 2.01997
9 6.90882e-18 2.30391 9 -3.1382e-18 2.55156 9.5 -1.00974e-28 2.57778 9.5
0 2.08482 9 -2.52435e-29 2.05574 10 -1.30369e-17 2.59966 10 0
3.0906 11 0 3.13758 12 0 3.16753 13 0 3.18143
14 0 3.1861 15 2.34283e-17 3.18716 -5 0 3.13082 -5
-2.8246e-17 4.11557 -4.00039 0 4.08378 -3.0018 -5.42101e-20 4.04421 -3.00113 -5.96311e-18
3.54412 -2 0 3.5 -2 -5.16988e-26 3.28376 -2 0 3.5
1.25056 1.35525e-20 3.00462 1.15858 0 3.00379 1.14482 0 3.25366 1.25048
-1.35525e-20 3.25461 3 0 3 3 -1.28799e-17 3.25 3.25 0
3.25 3.25 0 3 4 0 3 4 -1.89592e-18 3.25
4.00002 0 3.25 4 1.29247e-26 3 5 3.23117e-27 3.00777 5
4.56496e-18 3.25741 5.25 0 3.25778 5.25 3.23117e-27 3.00815 6 8.07794e-28
3.00926 6 -8.18032e-18 3.25887 6.25 0 3.2592 6.25 0 3.00959
7 4.03897e-28 3.0105 7 -1.44313e-18 3.26012 7.25 0 3.26039 7.25
0 3.01077 8 0 3.01729 8 9.51297e-18 3.26675 8.25 -1.00974e-28
3.28251 8.25 0 3.03422 9 -1.13316e-17 3.54219 9.5 2.01948e-28 3.56373
9.5 0 3.07075 9 0 3.04688 10 1.44621e-17 3.58154 10
0 4.07248 11 0 4.11006 12 0 4.13402 13 0
4.14514 14 0 4.14888 15 -2.58351e-17 4.14973 -5 7.05274e-17 5.09312
-3.99993 0 5.08025 -3.00007 2.1684e-19 5.04778 -2.00009 1.35525e-20 5.00153 -2.00038
-3.91939e-17 4.50134 -2.00045 0 4.00114 -2.50021 -5.28549e-18 4.00124 2.00133 2.71051e-20
4.00354 2.001 2.18196e-17 4.50355 2.5 2.06795e-25 4.5 2.5 0 4
3 0 4 3 -3.80475e-17 4.5 3.5 1.03398e-25 4.5 3.5
0 4 4 -1.03398e-25 4 4 -4.06264e-17 4.5 4.5 0
4.5 4.5 -5.16988e-26 4.49997 4.00003 1.03398e-25 4 6 1.29247e-26 4.00805
6 0 4.00873 6.49942 -6.72084e-25 4.50825 6.5 0 4.50825 6.5
0 4.00867 7 0 4.00923 7 -1.07652e-17 4.5082 7.5 0
4.50825 7.5 0 4.00941 8 0 4.01411 8 8.79829e-18 4.51234
8.5 0 4.52411 8.5 0 4.0275 9.5 -4.03897e-28 4.05671 9
0 4.0375 9 -1.14067e-17 4.53281 9 0 5.04224 10 0
5.05436 11 -4.03897e-28 5.08255 12 0 5.10052 13 -1.00974e-28 5.10886
14 0 5.11166 15 -5.02169e-17 5.1123 -5 5.94956e-18 6.06208 -3.9997
-1.0842e-19 6.05349 -2.99997 -1.35525e-20 6.0012 -1.99997 0 6.00128 -0.999976 5.33156e-17
5.00167 -1.50007 -1.58565e-17 5.00158 -0.999953 0 6.00136 6.79777e-05 -7.72494e-18 5.00191
-0.49994 -3.70797e-17 5.00179 5.0325e-05 0 6.0014 1.00008 2.57769e-17 5.00203 0.500073
-1.10318e-17 5.00204 1.00007 0 6.0014 2.0004 -1.35525e-20 5.74227 1.69151 -1.35525e-20
5.00239 1.50013 -4.32868e-17 5.00186 2.00025 0 6.00134 2.99998 9.42159e-22 6
6.00005 5.29396e-23 5.00703 5.50018 2.11758e-22 5.00709 5.38228 2.11758e-22 5.00695 6.00006
0 5.03909 7 0 5.00703 6.5 -2.46811e-17 5.00709 6.96544 -7.41154e-22
6.00469 7.00005 -5.29396e-23 6.00469 8 2.81435e-24 5.02081 7.49917 1.22785e-25 5.00709
8.00001 -6.61744e-24 6.01366 8.99969 3.26672e-24 6.02817 2.00083 -2.71051e-20 5.00325 3
2.06795e-25 6 3 -1.58161e-18 5 2.5 0 5 4 0
6 4 -3.39991e-17 5 3.5 1.03398e-25 5 5.0014 0 5.00651
4.5 0 5 5 5.16988e-26 6 6.00046 0 6.00466 8
0 5.02048 7.5 0 5.00709 8.5 0 5.02072 9 3.23117e-27
6.02817 10 -1.61559e-27 6.03624 11 8.07794e-28 6.05503 12 -4.03897e-28 6.06701
13 0 6.07257 14 0 6.07444 15 3.70132e-17 6.07486 -5
-3.24312e-17 7.03104 -3.99982 0 7.02674 -2.99998 0 7.00061 -1.99998 6.77626e-21
7.00065 -0.999976 0 7.00068 2.48667e-05 6.77626e-21 7.0007 1.00003 -6.77626e-21 7.0007
2.00006 -6.77626e-21 7.00068 2.60139 0 7.00101 7.00005 0 6.16302 7.98805
3.30872e-24 7.00678 8 0 7.00683 8.99921 0 7.01409 3.00043 0
7.00122 4 0 7 5 0 7 6.00035 -6.77626e-21 7.00232
7.00003 0 7.00234 9 0 7.01409 10 0 7.01812 11
0 7.02752 12 0 7.03351 13 0 7.03629 14 0
7.03722 15 2.98328e-17 7.03743 -4 -7.90671e-21 8 -5 -1.84332e-21 7.99999
-3 6.79012e-22 7.99999 -2 8.81361e-22 7.99999 -1 -2.28726e-21 7.99999 7.32374e-09
8.87565e-22 7.99999 1 2.82544e-21 7.99998 2 2.41806e-21 7.99998 8 -1.70606e-24
7.99828 -4 0 8 -5 -5.16988e-26 8 -3 0 8
-2 -1.03398e-25 8 -1 0 8 6.95393e-09 0 8 1
0 8 2 0 8 3 -1.03398e-25 8 4 0
8 5 0 8 6 0 8 7 0 8
8 6.46235e-27 8 9 0 8 10 0 8 11
8.07794e-28 8 12 4.03897e-28 8 13 0 8 14 0
8 15 -5.04871e-29 8 -0.999964 1.05879e-22 0.01875 -0.999962 2.11758e-22 0.0792239
-0.937452 -2.11758e-22 0.0789879 -0.937452 -7.67624e-19 0.01875 -0.0102783 0 0.985301 -0.0157641
-6.77626e-21 0.985342 -0.0153844 0 0.990908 1.99923 1.13841e-18 0.0752478 1.99924 0
0.0183062 1.93651 -3.82181e-18 0.01719 1.93651 -1.35525e-20 0.072745 1.93761 -1.36881e-18 1.0004
2.00009 0 1.00025 2.00004 0 0.937788 1.93753 -2.71051e-20 0.937954 -0.93899
-3.38813e-21 0.938435 -1.00144 1.69407e-21 0.938476 0.000497998 -7.04731e-19 0.985218 -0.0147548 -6.77626e-21
1.00012 0.969069 -2.98156e-18 0.009375 0.969041 2.71051e-20 0.0378507 0.0157615 0 0.986027
-0.00102467 -2.20906e-18 1.93926 -0.000889311 0 2.00183 0.0617038 0 2.00198 0.0615898
0 1.93943 2.00014 3.97089e-18 1.06267 1.93771 0 1.06275 2 0
1.99999 2 -1.05879e-22 1.93749 1.9375 0 1.93749 1.9375 1.8036e-18 1.99999
1.00094 -4.03865e-18 1.94198 0.9383 0 1.94194 0.93837 1.35525e-20 2.00449 1.06352
0 1.94204 2.06193 -1.35525e-20 0.0765379 2.06193 -4.68917e-18 0.0186528 3 -1.81039e-18
0.0799561 3 1.32349e-23 0.01875 2.9375 1.22555e-18 0.01875 2.9375 0 0.079892
2.06256 -6.77626e-21 1.00015 2.06253 -6.77626e-21 0.937681 2.9375 -2.42535e-18 1.00249 3
0 1.00322 3 -6.61744e-24 0.941243 2.9375 0 0.940625 0.50047 6.77626e-21
0.027037 0.50044 -6.77626e-21 0.00937499 0.469159 0 0.00937489 0.469163 0 0.011084
-0.0309658 0 1.00178 -0.0288823 0 1.00037 -0.0311024 1.69407e-21 1.0004 -1
2.65061e-18 1.9375 -1 0 2 -0.9375 -8.27181e-25 2 -0.9375 0
1.9375 -0.0635166 5.74627e-18 2.00167 -0.0635912 0 1.93911 2.06259 0 1.06261
3 -3.76144e-18 1.06544 2.93751 -1.32349e-23 1.06468 2.0625 0 2 2.0625
5.29396e-23 1.93749 3 0 2 3 0 1.9375 2.9375 2.06795e-25
1.9375 2.9375 -5.82667e-18 2 -0.0282619 0 1.029 0.00353532 0 1.02858
0.000751005 5.29396e-23 1.43704 0.00111654 0 1.43671 0.000760055 0 1.43671 0.000285858
2.71051e-20 0.498141 0.000156034 0 0.484128 -0.0155977 0 0.48402 -0.0152721 7.86047e-19
0.496509 -0.501601 -3.38813e-21 0.500645 -0.439154 -6.77626e-21 0.500755 -0.439077 -1.35525e-20 0.469314
-0.439023 1.35525e-20 0.437969 -0.501413 1.86347e-18 0.43787 -0.501826 0 1.00057 -0.439211
0 1.00054 -0.439163 -3.38813e-21 0.937938 -0.501777 3.66935e-18 0.937998 -0.501723 1.69407e-21
0.563398 -0.439157 -3.38813e-21 0.563487 0.500489 -3.38813e-21 0.0380538 0.469222 6.77626e-21 0.038325
0.0160838 -1.6263e-18 0.498552 0.0160288 5.42101e-20 0.483976 0.486228 0 0.487123 0.491214
-1.0842e-19 0.502479 0.492708 5.42101e-20 0.504765 0.50055 0 0.496218 0.507957 0
0.037948 1.00164 0 0.502496 1.00002 -1.0842e-19 0.486158 0.981588 -5.42101e-20 0.484933
0.982133 1.0842e-19 0.488709 0.988978 0 0.498108 0.500602 0 0.984593 0.500842
1.35525e-20 0.98278 0.493365 -1.35525e-20 0.983045 0.510209 0 0.999714 0.515104 -5.42101e-20
0.998796 0.51601 1.35525e-20 0.981869 1.01493 0 0.501977 1.01456 0 0.487268
1.93852 7.96889e-18 0.50049 2.00137 -1.35525e-20 0.500497 2.00112 -1.35525e-20 0.437781 1.93848
0 0.437755 1.00241 1.0842e-18 0.515574 1.01421 5.42101e-20 0.514355 1.967 1.69407e-21
0.563175 2.00134 0 0.549347 1.93851 0 0.563152 -0.499479 1.21973e-19 0.0738711
-0.43682 -1.69407e-21 0.0700973 -0.436806 -1.79793e-18 0.0140688 -0.499477 2.11758e-22 0.0169442 0.531691
2.24972e-18 0.009375 0.531738 0 0.0376102 0.982897 1.0842e-19 0.495945 0.485506 0
0.983329 0.485307 -8.13152e-19 1.0033 0.498394 0 1.00212 2.00133 -3.38813e-21 0.563203
-0.00096927 0 1.5006 0.0614961 0 1.50042 0.061972 0 1.43772 0.500021
-2.71051e-20 1.50241 0.499988 0 1.47142 0.46837 0 1.47148 0.468409 -3.52366e-19
1.50251 0.504906 0 1.01011 0.511229 -1.0842e-19 1.01789 0.531565 0 1.50217
[...]
POINT_DATA 14144
FIELD attributes 1
U 3 14144 float
19.9818 0.000314135 0.00489827 20 0 0 20 0 0 19.9859 0.000307201
0.0147659 19.949 0.000676426 0.0381639 19.9324 0.00067488 0.0245535 19.9346 0.000636667 0.00940523
18.9722 0.248738 0.539114 18.5002 0.294211 0.541044 18.6878 0.3579 0.168754 19.1631
0.318906 0.166622 11.1635 -1.70991 -0.727634 11.2331 -1.6796 -0.719833 11.2176 -2.03142
-0.313599 11.1276 -2.03836 -0.317443 12.1246 -1.19127 -0.640075 12.1781 -1.15936 -0.636458
12.2728 -1.69481 -0.27205 12.2217 -1.72353 -0.273866 12.9346 -0.724941 -0.584957 12.9824
-0.699749 -0.581571 12.974 -1.20669 -0.24509 12.9342 -1.23672 -0.246811 13.6619 -0.386258
-0.542487 14.2413 0.10272 -0.84077 14.4272 0.15123 -0.82582 13.6792 -0.563496 -0.333694
13.5575 -0.757806 -0.246053 16.126 0.244764 -0.799637 17.5439 -0.115175 -0.753368 17.5785
-0.0659751 -0.43938 15.5601 0.131614 -0.325842 14.7695 0.0215888 -0.424833 18.309 0.0230387
-0.0880571 16.4617 0.112317 -0.271915 17.9219 -0.0630107 -0.394837 19.3698 -0.100727 -0.248361
19.5111 -0.0190305 -0.0859179 18.4151 0.0140276 -0.0714343 19.5568 -0.0190164 -0.0630771 18.4798
0.0110103 -0.0603139 19.5859 -0.0187223 -0.0494781 18.5136 0.00979219 -0.0544348 19.5991 -0.0185809
-0.0438751 19.6051 -0.0185153 -0.0418959 18.4941 0.0119805 -0.0511328 20 0 0
19.9933 0.000292632 0.0213828 19.9767 0.00067019 0.0525892 19.9603 0.000718279 0.0529285 19.394
0.00224122 0.343835 19.4215 0.00291517 0.365954 19.3708 0.00307967 0.397771 19.3293 0.00238546
0.379802 13.1555 0.377884 8.22238 13.8351 0.332941 7.94626 13.5877 0.410687 8.7237
12.8361 0.467527 9.18002 18.7379 -0.296705 -1.35055 19.1597 -0.0527707 -1.15051 19.1664
-0.0509886 -1.13336 18.7519 -0.291214 -1.32973 18.9089 -0.225478 -1.0899 19.2367 -0.031374
-0.93583 19.2402 -0.0304597 -0.92569 18.9169 -0.221995 -1.0776 19.0189 -0.178906 -0.929343
19.2854 -0.0199296 -0.803729 19.2882 -0.0193716 -0.7973 19.0248 -0.176472 -0.92156 19.326
-0.0262319 -0.718268 19.5647 0.054123 -0.598705 19.5519 0.0336968 -0.563075 19.0865 -0.156569
-0.755902 19.0942 -0.162645 -0.812316 19.823 0.0393708 -0.294733 20.0453 0.037886 -0.156602
19.9716 0.0257052 -0.142673 19.2768 -0.146192 -0.299764 19.2085 -0.155856 -0.462988 19.9841
0.0204129 -0.125819 20.0685 0.0139319 -0.0554467 20.0478 0.00807221 -0.0318642 20.0504 0.00716949
-0.0191585 20.0526 0.0069665 -0.0133949 20.0536 0.00690674 -0.0118777 20.0539 0.00696424 -0.0114176
20 0 0 20 2.14348e-08 1.74161e-06 19.999 0.00025508 0.0207282 19.9967
0.000583551 0.0473293 19.9881 0.000678621 0.0550491 20 0 0 20.6544 0.0360089
0.0829972 20.5976 0.0308021 0.0931393 20.5909 0.0316861 0.0425195 20.645 0.0371256 0.0251655
20.076 0.0265846 -0.158403 20.0762 0.0264376 -0.158117 20.0761 0.0264278 -0.157784 20.0767
0.0269116 -0.122133 20.0767 0.024434 -0.114109 20.077 0.024283 -0.112056 20.0771 0.0267353
-0.119946 20.0823 0.0240364 -0.0961644 20.0813 0.0219739 -0.089603 20.0816 0.0218117 -0.088562
20.0826 0.0238491 -0.0950644 20.086 0.0212036 -0.083401 20.0845 0.0195432 -0.0774762 20.0846
0.0193958 -0.076989 20.0861 0.0210329 -0.0828919 20.0848 0.0175518 -0.0713005 20.0833 0.0163311
-0.0663084 20.0834 0.0162332 -0.0659399 20.0867 0.0186982 -0.0766063 20.0866 0.0188652 -0.0770384
20.0787 0.0134847 -0.0527836 20.0755 0.0107945 -0.0409277 20.074 0.0105415 -0.0389682 20.0815
0.0158367 -0.0628546 20.0844 0.0170452 -0.0690604 20.0726 0.00993352 -0.0343871 20.0664 0.0067989
-0.022014 20.0629 0.00587679 -0.0140789 20.0615 0.00588819 -0.00943279 20.0614 0.00604664 -0.00717618
20.0621 0.0062079 -0.00634831 20.0626 0.00627324 -0.00600742 20 0 0 20
0 0 20.0015 0.00020708 0.0162673 20.0057 0.000453468 0.0352855 20.0026 0.000538689
0.0435951 20.0095 0.000946554 0.0729203 20.0042 0.00102379 0.0809296 20.0095 0.000946552 0.0729202
20.2233 0.007188 0.0387789 20.2223 0.00701751 0.0529496 20.1855 0.00543413 0.0502492 20.1871
0.00558373 0.038592 20.1282 0.00841781 -0.0786476 20.1221 0.00669971 -0.0587775 20.1129 0.00675391
-0.0596321 20.1172 0.00846369 -0.0776959 20.0951 0.00848987 -0.06788 20.0934 0.00682165 -0.0550496
20.0934 0.00682165 -0.0550494 20.0951 0.00848987 -0.06788 20.082 0.0083266 -0.0525738 20.0801
0.0067374 -0.0443607 20.0782 0.0067021 -0.0419401 20.0803 0.00827023 -0.049395 20.0771 0.00805812
-0.0416716 20.0744 0.00655993 -0.0357485 20.0735 0.00650638 -0.0340737 20.0763 0.00797935 -0.0396529
20.0747 0.0077385 -0.0349652 20.0714 0.00633975 -0.0300255 20.0708 0.00628777 -0.0289439 20.0742
0.0076621 -0.0337536 20.0725 0.00743024 -0.0306085 20.0689 0.00612535 -0.0260668 20.0682 0.00606602
-0.0251068 20.0718 0.00736029 -0.0296033 20.0624 0.00501192 -0.0196132 20.0611 0.00501564 -0.018267
20.0682 0.00716704 -0.0251416 20.0697 0.00719871 -0.026853 20.0598 0.00487488 -0.016712 20.0524
0.00357139 -0.0124248 20.0501 0.00344197 -0.00992983 20.0484 0.00329871 -0.00765499 20.0478 0.00316564
-0.00583731 20.0478 0.00308834 -0.00475719 20.0479 0.00306336 -0.00432018 20 0 0
20.0021 0.000166526 0.0111501 20.0073 0.000351956 0.0229517 20.0179 0.000587597 0.0353174 20.0188
0.000694108 0.0456385 20.0152 0.000799822 0.057545 20.0087 0.000629281 0.04819 20.1167 0.00344164
-0.000845708 20.0951 0.00254559 0.00428479 20.0914 0.00270218 -0.00630068 20.1088 0.00364223 -0.0154455
20.0992 0.00378177 -0.0240421 20.0858 0.00281839 -0.0132435 20.0797 0.00290736 -0.0173478 20.0901
0.00388087 -0.0281805 20.0824 0.00393868 -0.0292516 20.0742 0.00296762 -0.0192066 20.0692 0.00300296
-0.0197597 20.0692 0.00300302 -0.0197601 20.0824 0.00393869 -0.0292515 20.065 0.00391299 -0.0234892
20.065 0.00391175 -0.0234813 20.0567 0.00298399 -0.01661 20.0567 0.00298397 -0.0166088 20.0628
0.00387534 -0.0217697 20.0609 0.00383404 -0.0202128 20.0548 0.0029613 -0.0155477 20.0531 0.00293664
-0.0145183 20.0593 0.003796 -0.0188267 20.0578 0.00374769 -0.0175051 20.0515 0.00290532 -0.0134798
20.05 0.00289131 -0.0124384 20.0563 0.00371783 -0.0162636 20.0549 0.00379411 -0.0144718 20.0553
0.00371055 -0.0152158 20.0487 0.00284547 -0.0114601 20.0435 0.00227757 -0.00893795 20.0412 0.00222897
-0.00782689 20.0391 0.00218465 -0.00636381 20.0375 0.00214614 -0.00484229 20.0365 0.00214056 -0.00361582
20.0358 0.00217118 -0.00295742 20.0354 0.00219475 -0.00272314 20 0 0 20.002
0.000136393 0.00680933 20.0067 0.000283643 0.013756 20.0152 0.000451336 0.0195363 20.0348 0.000889869
0.043018 20.026 0.000749085 0.0422649 20.0271 0.000645057 0.0223598 20.0557 0.00125337 0.0404377
20.0461 0.00109693 0.0456047 20.0403 0.000860222 0.0207368 20.0735 0.00164252 0.0255738 20.0678
0.00150044 0.0362794 20.0514 0.00108419 0.0141212 20.0629 0.00146558 0.00556847 20.0801 0.00191845
0.0127224 20.0806 0.00188451 0.0166177 20.0572 0.00128761 0.00526767 20.0571 0.00143627 -0.00158176
20.054 0.00239046 -0.0132487 20.0574 0.00247604 -0.0142297 20.0579 0.00245412 -0.0141066 20.0537
0.00236549 -0.0130625 20.05 0.0023711 -0.012041 20.0526 0.00246353 -0.013153 20.0419 0.00161958
-0.0071367 20.0418 0.0016198 -0.00712527 20.0466 0.00233357 -0.0105862 20.0489 0.00243261 -0.0116819
20.0387 0.00161231 -0.00646 20.0359 0.00160197 -0.00568663 20.0792 0.00197303 0.00642664 20.0571
0.00143627 -0.00158191 20.0747 0.00219531 -0.00651429 20.08 0.00217807 -0.00158935 20.0538 0.00153146
-0.0053831 20.0668 0.00232779 -0.0122201 20.0723 0.00235627 -0.0109131 20.0595 0.00238332 -0.0137089
20.0639 0.00245167 -0.0141076 20.0494 0.00158849 -0.00711577 20.0453 0.00161353 -0.00745561 20.0466
0.00233381 -0.0105876 20.0489 0.00243271 -0.0116813 20.0457 0.00239035 -0.0100082 20.0359 0.00160197
-0.00568639 20.0336 0.00159261 -0.00485675 20.0315 0.00157805 -0.00401181 20.0299 0.00156529 -0.00320099
20.0287 0.00155886 -0.00258063 20.0277 0.00155596 -0.00223275 20.0271 0.00155411 -0.0020777 20
0 0 20.0018 0.000117866 0.00322667 20.0059 0.00024153 0.00634994 20.0131 0.000377442
0.00885931 20.0226 0.000526747 0.0101737 20.0328 0.000689346 0.00954999 20.0417 0.00085574 0.00680597
20.047 0.00101294 0.00286686 20.0476 0.00108308 0.000926367 20.041 0.00156947 -0.00651564 20.0341
0.00130469 -0.00302632 20.034 0.00130471 -0.0030232 20.0314 0.00130142 -0.00269828 20.0481 0.00112961
-0.000361334 20.0464 0.00120435 -0.00218483 20.0434 0.00125847 -0.00310814 20.0401 0.00128898 -0.00336453
20.037 0.00130269 -0.00328396 20.0314 0.00130142 -0.00269802 20.0291 0.00129594 -0.002344 20.0271
0.0012887 -0.00198057 20.0255 0.00128182 -0.00162659 20.0242 0.00127715 -0.00134017 20.0231 0.00127687
-0.00115884 20.0223 0.00127778 -0.00107449 20.0017 0.000111937 2.96889e-09 20.0003 2.76991e-05 0
20.0056 0.000227985 7.65866e-08 20.0124 0.000353873 1.00972e-07 20.0211 0.000489743 1.33901e-07 20.0305
0.00063714 1.42066e-07 20.0387 0.000787127 1.08344e-07 20.0439 0.000934798 5.72307e-08 20.0325 0.00120571
-5.24492e-06 20.0017 0.000111937 0 20.0003 2.76993e-05 0 20.0056 0.000227985 0
20.0124 0.000353873 0 20.0211 0.000489743 0 20.0305 0.000637139 0 20.0387
0.000787126 0 20.0439 0.000934796 0 20.0453 0.00104188 0 20.044 0.00110502
0 20.0415 0.00115597 0 20.0384 0.00118634 0 20.0354 0.00120116 0
20.0325 0.00120553 0 20.03 0.00120444 0 20.0277 0.00120082 0 20.0258
0.00119646 0 20.0241 0.0011924 0 20.0228 0.00118982 0 20.0216 0.00119012
0 20.0208 0.00119094 -0.00031775 19.2147 -0.00633856 0.0046585 19.1678 -0.00640731 0.0188082
19.0954 -0.00827076 0.0207842 19.139 -0.00838099 0.00600064 12.6637 0.376965 8.06887 12.7935
0.34852 7.79314 13.0138 0.336041 7.69253 1.96628 0.995257 0.516626 9.39616 1.4341
0.557659 10.1083 1.45308 0.672761 2.40539 1.17264 0.865449 11.5612 0.0188855 -3.61307
12.7285 -0.0388774 -4.04371 7.92311 -0.793635 -2.10704 6.3757 -1.03354 -1.15788 19.2905
0.00168684 0.359401 19.3505 0.00160881 0.330217 12.4093 0.433449 8.60995 13.3787 0.3151
7.52575 19.5293 0.28689 0.166424 19.33 0.213459 0.543042 11.9437 0.545403 9.6704
20.1095 0.0144434 0.787944 20.1249 0.0130499 0.706045 20.1698 0.0141722 0.717273 20.1606
0.0157828 0.804313 16.0238 -0.211545 -4.45529 15.6675 -0.239195 -4.5115 20.2879 0.0335254
-0.370626 20.2902 0.0379146 -0.422289 20.315 0.0383381 -0.422365 20.3105 0.0338529 -0.368845
20.719 0.0426135 0.0675573 20.7267 0.0409096 0.137357 20.6595 0.0346933 0.143498 20.7061
0.0440203 0.00134326 1.7862 0.868221 0.250091 8.92998 1.42731 0.449537 5.60297 -1.15858
-1.31433 5.25972 -0.0335256 -0.49831 5.08815 0.111596 -0.460748 5.2239 -1.05024 -1.30459
13.7203 -0.152881 -4.2694 9.39307 -0.658151 -2.82779 17.3878 -0.690794 -2.98106 17.4797
-0.674375 -2.88098 16.5452 -1.01653 -3.08025 16.4358 -1.02435 -3.17939 20.2303 -0.0274586
0.799977 20.5212 0.0551099 0.330061 20.2792 0.00892535 0.355522 20.2482 0.000720842 0.404278
13.8379 0.256651 6.78035 13.7323 0.266146 6.90355 13.7879 0.258499 6.8058 19.865
0.00348606 0.32855 19.8835 0.00335986 0.312726 19.8827 0.00361044 0.332055 19.8628 0.00371592
0.346025 20.0841 0.0119767 0.689553 20.0637 0.0131788 0.765607 16.3238 -0.222109 -4.35217
18.3173 -0.247734 -2.47019 18.2381 -0.261598 -2.56171 20.2669 0.0332556 -0.37033 20.2671
0.0375703 -0.419986 20.1029 0.0316912 -0.270156 20.0973 0.0355698 -0.294129 20.1018 0.0356881
-0.302915 20.1076 0.0317765 -0.277832 14.8276 0.218217 6.27726 14.4797 0.294687 7.45566
19.4283 0.0464583 2.22648 19.4278 0.0465656 2.2294 19.4273 0.046503 2.22806 0
0 0 1.76624 1.19311 -0.446541 -0.201181 0.470597 -0.523063 0 0
0 17.7286 -0.0434363 0.387964 17.2272 -0.0662374 0.522756 17.0583 -0.0816711 0.52504
16.9751 -0.0931174 0.476471 17.6124 -0.0578929 0.321217 18.4234 0.0111576 0.923087 18.1555
0.0156483 1.09659 17.9594 0.0142085 1.00537 18.2769 0.00957947 0.852512 17.8286 -0.0303057
0.427206 17.4188 -0.043411 0.540657 20.0495 -0.0785665 1.09239 19.7553 -0.129245 1.17985
0.163293 0.0636628 -0.0194468 3.95843 1.71345 -0.484076 0.286805 -0.095191 -0.0964554 0
0 0 0 0 0 0.405324 0.229593 -0.393918 20.1042 -0.0690589
1.07514 0 0 0 0.838176 2.30039 0.413487 0.63646 2.13883 0.332888
0.424169 1.42543 0.221853 0 0 0 2.69219 1.76512 0.616488 2.97754
1.95129 0.675379 2.93594 1.97873 0.240981 3.26622 1.65536 0.952933 4.58541 2.32753
1.31797 3.11337 2.12005 0.719804 0.648242 1.86421 0.272965 0.906566 2.05068 0.466896
7.40933 1.80348 -3.71311 7.98367 2.01072 -3.71554 5.77842 0.338475 -3.4924 4.93208
0.159794 -3.39744 0 0 0 0.216907 0.838292 -0.0385466 9.36623 2.99415
-3.80154 9.22263 2.82179 -3.77824 9.19411 2.94636 -3.80616 17.9338 -0.0763651 -0.111064
17.5815 -0.109867 -0.24281 17.7241 -0.107019 -0.0949992 18.0172 -0.0748827 -0.0410895 20.7059
0.0923994 0.309528 20.2805 -0.0378621 1.01696 0 0 0 2.89659 2.00911
-0.2249 9.7235 3.33354 -2.74044 0 0 0 9.57311 3.05146 -3.79541
19.6257 0.0380363 1.927 19.725 0.0455501 2.10105 19.5172 0.0572062 2.45871 22.0322
0.0620984 1.56501 22.4213 -0.0474314 1.5853 22.3275 -0.0127069 2.16466 21.9938 0.0654349
2.01083 0.0699214 0.0437706 -0.524297 0.0977683 0.0478599 -1.05551 22.0998 0.0809633 1.18007
22.3717 -0.060923 1.04813 9.30885 -2.7869 -2.9256 9.98291 -2.66455 -2.67146 9.2082
-2.92654 -1.53791 20.2003 0.104027 -1.12066 20.1385 0.113058 -1.30618 20.1825 0.113084
-1.36457 20.2434 0.104759 -1.16332 20.762 0.185103 -1.61206 20.7586 0.156919 -1.28016
20.667 0.142485 -1.29451 20.6541 0.16257 -1.60845 21.7652 0.264003 -1.01213 21.9337
0.210063 -0.724916 21.6683 0.168637 -0.35975 21.5615 0.198488 -0.593528 9.25402 -2.79682
-2.94626 7.42814 -3.38163 -0.585679 6.88623 -3.84977 -0.775758 16.5645 -0.130238 0.734311
15.8432 -0.105494 0.775018 15.8228 -0.247461 2.38759 16.2923 -0.246523 2.10197 12.838
0.506092 -2.99648 13.5339 0.520203 -1.87537 13.8859 0.659354 -1.16426 13.9437 0.767082
-0.865948 12.8923 0.747008 -2.32558 12.2433 0.668351 -3.76531 18.421 0.0899014 3.51547
18.4759 0.123238 4.01883 17.916 0.158948 4.99469 17.8355 0.220252 4.67641 17.8516
0.122304 4.24891 16.9949 0.500591 5.11502 17.7635 0.361758 5.2477 17.8656 0.324773
5.0483 17.1275 0.453009 5.25324 6.44708 -4.09408 -0.907093 8.59175 -2.83511 -3.16875
21.4347 0.217566 -0.772335 21.5717 0.296841 -1.20184 16.7732 -0.322167 -0.478349 16.2896
-0.34246 -1.43644 16.0723 -0.380767 -1.88827 15.9836 -0.42498 -2.15851 16.4383 -0.406382
-1.22217 16.7205 -0.38216 -0.564428 16.8256 0.0487644 2.13796 16.1157 0.0740126 2.87416
15.1269 0.085853 2.69173 16.2068 0.0531048 1.96117 -0.832515 -0.961045 1.2546 -0.68202
-1.16185 0.544379 -0.336468 -0.890672 0.372602 0.235426 -0.494258 0.189706 0.478653 -0.553691
0.358515 0.258112 -0.735336 0.58045 0.0336352 0.0366763 -0.947467 0.222251 -0.606862 4.9513
1.25285 -0.724025 5.65852 1.35606 -0.00911522 -1.12913 13.2313 0.400677 -2.48888 -0.776416
0.583316 1.56855 -0.836322 -0.0500027 0.843157 -0.902096 -1.0235 0.608488 -0.674553 -0.272681
-0.195672 -0.602163 -0.214627 -0.0866485 -0.546387 -0.479099 -0.1261 -0.655517 -0.558549 -0.254938
15.5273 0.0283052 0.508494 15.3457 0.0477721 0.974967 13.4707 0.0952494 1.02548 13.3166
0.0918333 0.283718 14.0379 0.0661705 -0.0967126 20.4179 0.0799472 0.744756 20.3335 0.0918818
0.690889 20.6095 0.196707 0.218155 20.7098 0.18959 0.234592 18.6451 0.212318 8.199
16.4633 0.0418996 8.6608 16.6928 0.255187 8.38903 18.5194 0.578504 7.83503 -1.19531
-0.664584 4.83681 -2.04265 -0.286723 -0.169006 14.3825 2.5911 -5.17803 16.7019 1.96218
-5.26625 16.5206 2.01135 -5.55301 14.2755 2.61159 -5.23432 20.851 0.172464 -1.24746
20.8711 0.210197 -1.59297 16.8315 1.92739 -5.06141 15.311 2.4147 -4.68446 15.609
-0.335297 3.90597 16.0194 -0.346776 3.51155 16.5305 -0.353848 2.75412 17.8221 -0.196965
0.750843 0 0 0 -0.536995 0.945642 1.96152 -0.565183 0.914799 1.97449
0 0 0 13.3181 0.0346704 -2.43892 13.943 0.461574 -1.1788 13.1547
0.114742 -2.69565 11.5396 0.937114 -4.82328 11.732 0.890614 -4.77492 13.1447 0.43386
-3.00987 13.3768 0.775056 -2.80196 14.1532 0.792332 -1.43412 14.0957 0.53073 -1.33121
-1.00793 -0.369205 1.07271 -0.938505 -0.331731 0.625207 -1.09437 -0.427458 0.620564 9.07289
2.59113 -3.7537 9.83095 3.06527 -3.80082 11.5479 2.85443 -3.88985 11.071 2.79224
-3.86736 11.4562 2.87241 -3.90328 18.5834 0.0121286 0.971146 18.3667 0.0162816 1.1522
19.4261 0.046345 2.22404 19.3647 0.0376935 2.00365 19.5528 0.0319102 1.75877 19.4008
0.0106735 0.888213 19.4945 0.0101851 0.844334 19.4755 0.0118748 0.939596 19.3687 0.0126279
0.997165 15.7503 0.662782 5.6647 15.2675 0.723493 5.41064 15.3706 0.696266 4.91889
12.5636 -0.355222 4.32117 11.3597 -0.428194 5.67042 9.33892 -0.559237 6.92902 10.9718
-0.457507 5.43372 13.5876 -0.283615 3.5422 12.816 -0.336966 4.46994 15.5561 -0.00537221
0.327749 15.6668 -0.00951166 0.433 15.9265 -0.00789074 0.495046 15.812 0.00253721 0.498927
0 0 0 0.0113379 1.75286 1.5906 0.91635 2.00238 1.4114 0
0 0 -0.0820718 2.84248 0.611796 -0.348206 2.41943 0.885732 -0.942412 -1.04804
1.50775 -0.985467 -1.29023 0.777139 2.8626 0.726766 -2.37844 2.86749 0.689417 -2.53129
2.40131 0.803927 -2.48963 2.37774 0.587874 -2.60678 0.533222 2.41709 0.564319 3.37886
0.747136 -2.16097 3.37727 1.05152 -1.97032 0.33379 -1.60215 9.3542 0.705338 -1.73777
9.75364 1.05622 -1.79824 9.81139 -2.97432 0.788584 3.97664 -3.08509 0.757117 3.9757
-3.45725 0.688545 4.00768 -3.36217 0.767763 4.16393 -3.14401 0.854269 4.09197 2.74614
0.922152 -2.73814 2.47251 1.15709 -2.37951 3.08172 0.530302 -2.59609 14.0221 0.19548
-1.1976 -0.653521 -0.0818097 1.46385 -0.452901 -0.0316971 0.640227 -0.954941 -0.333744 1.34859
-0.470534 0.116488 1.56497 -0.231462 0.0668553 1.25196 0.362972 0.248924 0.4723 8.96299
1.81537 1.63111 13.7145 2.43269 0.687612 13.481 2.22649 0.793118 9.38829 1.30499
2.17774 0 0 0 0 0 0 -0.871946 0.380154 0.171032
2.19453 -0.314264 -2.07395 2.98037 -0.124763 -2.47676 1.78923 -0.52495 -2.31703 1.76854
-0.535788 -2.30231 2.18106 -0.321093 -2.06779 -0.237618 -0.486638 -1.78772 -0.229818 -0.466493
-1.97536 -0.191081 -0.560632 -1.82317 -0.00993811 0.747091 -0.0170537 0.550743 1.55521 0.153928
-0.452902 0.0526737 0.00629145 0.666236 1.59935 1.84188 0.303112 1.65367 1.54118 -0.050925
1.4828 1.21466 -0.481488 0.927927 0.971297 -0.0735575 1.07611 1.51869 -0.753217 -0.407512
-0.32486 -0.733602 -0.619563 -0.385049 1.09617 1.50578 1.94907 0.545189 1.62003 1.59282
-0.761269 -0.371786 -0.382518 -0.399678 0.269558 -0.174912 2.00197 0.849973 2.35898 0.630145
0.820906 2.14076 8.5713 -2.1704 1.79314 8.0806 -2.85108 2.60262 9.04058 -3.05244
2.44712 9.19994 -2.37219 1.75258 4.21003 0.317176 -2.88284 3.12865 -0.0351331 -2.30339
3.31943 0.263795 2.13134 2.49556 0.55252 2.08331 1.50697 1.12902 1.82613 8.04473
-1.19316 0.999335 7.97379 -1.87694 1.76591 8.48865 -2.06835 1.73389 14.6952 0.0413107
-0.348848 15.3354 0.00300809 0.117573 20.8011 0.183282 0.249381 20.4994 0.0699525 0.794603
-0.365545 2.3972 0.901463 19.2831 1.03555 7.0809 19.6692 0.606783 7.36739 16.6482
0.538223 7.71161 18.2176 0.934587 7.32827 -2.95103 0.777571 3.95679 18.8533 1.38662
6.74596 -0.160753 -0.556073 -1.36 -0.207415 -0.442394 -1.10435 -0.253837 -0.489186 -1.41814
-0.242118 -0.498217 -1.68016 0.469031 -1.00545 -1.21256 -0.173125 -0.60431 -1.75253 11.1136
-1.67333 -0.28674 11.35 -1.80023 -0.56712 10.7346 1.37233 -2.23829 10.4983 1.43444
-2.07541 9.29479 0.836783 -1.36352 9.29576 -1.95892 1.33074 9.60064 -2.06762 1.3171
10.3089 -1.63583 0.544181 9.87405 1.14577 -1.6465 -1.20436 2.06052 1.03522 0
0 0 0 0 0 8.61178 -2.11408 1.72615 8.241 0.790506
-1.22477 -0.340337 -1.36903 8.10812 9.33525 1.4578 -0.352322 0.0883067 -0.00573934 0.000906374
0.82566 0.0420822 0.0291531 2.9472 0.517085 -0.280469 17.155 0.23535 -4.90075 19.5825
0.406358 -3.94541 19.6191 0.310836 -3.75637 17.4989 0.110689 -4.67014 19.6572 0.19459
-3.16217 18.2595 0.0443892 -3.96203 18.0779 0.0278359 -4.1462 19.664 0.207862 -3.32554
19.7821 0.000765135 0.0131737 19.7761 0.00077264 0.0348653 19.7107 0.000603427 0.0430606 19.7085
0.000547558 0.0150523 19.1791 -0.00585896 0.0368318 19.337 -0.00348308 0.00716528 19.3231 -0.00311863
0.0351081 19.8048 0.0010016 0.0841697 19.8367 0.00116299 0.100101 19.781 0.00129316 0.131214
19.7478 0.00101354 0.106467 19.5022 0.00187949 0.286374 19.3295 0.00115216 0.307739 19.4515
0.00113952 0.258401 18.2434 -0.0553655 -0.0177752 18.2415 -0.0534337 -0.0291357 18.2087 -0.0538946
-0.0451877 4.79659 -1.57018 0.0874454 5.79252 -1.92217 0.181078 3.97056 -1.36722 0.306349