# vtk DataFile Version 2.0
sampleSurface
ASCII
DATASET POLYDATA
POINTS 14144 float
-4 2.4359e-17 0.213991 -5 -7.03332e-17 0.24832 -5 -8.78968e-17 1.19622 -4 0
1.15978 -3 3.30872e-24 1.09917 -3 2.12034e-17 0.618363 -3 6.61744e-24 0.144377
1.00049 2.71051e-19 0.0377466 1.032 0 0.0376088 1.03198 -2.76472e-18 0.00937487 1.00051
0 0.00937499 5 2.37371e-18 0.0807757 5.0625 0 0.0807864 5.0625 -2.32186e-18
0.01875 5 -7.88861e-31 0.01875 6 -4.59957e-19 0.0809059 6.0625 0 0.0809118
6.0625 -1.44624e-18 0.01875 6 -1.97215e-31 0.01875 7 -9.10076e-19 0.0809817 7.0625
0 0.0809867 7.0625 -7.45877e-19 0.01875 7 0 0.01875 8 2.16089e-18
0.0810315 8 0 0.143317 8.125 0 0.152582 8.125 -3.0713e-18 0.0282186
8 -7.88861e-31 0.01875 9 -3.36839e-18 0.322117 9 -7.14776e-18 0.569424 9.5
-1.00974e-28 0.605111 9.5 1.54025e-18 0.112989 9 0 0.075 11 0
0.22013 10 -1.00974e-28 0.144966 10 -1.07672e-17 0.635459 10 0 1.12676
11 0 1.19261 12 0 0.268044 12 0 1.23454 13
0 0.290282 13 -5.04871e-29 1.254 14 -2.52435e-29 0.29776 14 0
1.26054 15 -9.61216e-18 1.26203 15 0 0.299458 -5 -1.05512e-16 2.15667
-4 0 2.11862 -3 0 2.06503 -3 -3.42204e-17 1.58106 -1.00144
3.38813e-21 1.00095 -1.00156 2.6834e-18 1.06317 -0.939104 0 1.06315 -0.939024 0
1.00083 0.00102175 -1.35525e-20 1.00018 0.00157824 -1.3146e-18 1.01503 0.0193806 -5.42101e-20 1.01315
0.0168153 0 1.00027 5 0 1.01287 5 -2.48715e-18 1.07512 5.0625
0 1.07524 5.0625 0 1.01299 6 0 1.01429 6 3.11075e-18
1.07657 6.0625 0 1.07664 6.0625 0 1.01435 7 0 1.01514
7 -1.05712e-18 1.07746 7.0625 0 1.07751 7.0625 0 1.01518 8
-4.76227e-19 1.07803 8 -1.97215e-31 1.14036 8.125 0 1.14821 8.125 -1.57772e-30
1.02371 8 -3.9443e-31 1.0157 9 9.89212e-18 1.312 9 -1.17997e-17 1.55979
9.5 -5.04871e-29 1.59144 9.5 0 1.09792 9 0 1.06435 10
-1.40371e-17 1.61778 10 -1.00974e-28 2.10872 11 0 2.1651 12 -5.04871e-29
2.20103 13 0 2.21771 14 2.52435e-29 2.22332 15 2.88049e-17 2.22459
-5 5.16988e-26 2.5257 -4.99992 -5.07475e-22 3.13073 -4.00007 0 3.09448 -3.00072
6.77626e-21 3.04721 -3.00013 -5.74204e-18 2.55367 -5 0 3.13073 1.00096 2.71051e-20
2.00453 1.00095 -5.55654e-18 2.06706 1.06354 0 2.06709 1.06354 -2.71051e-20 2.00457
4.0625 0 2.06715 4.05722 0 2.07057 4.0625 0 2.07058 5
-3.9443e-31 2.01012 5 2.08749e-18 2.07242 5.0625 0 2.07251 5.0625 0
2.0102 6 0 2.01137 6 -2.47753e-18 2.0737 6.0625 -9.86076e-32 2.07378
6.0625 0 2.01144 7 -1.2326e-32 2.01243 7 2.62598e-18 2.07479 7.0625
0 2.07485 7.0625 0 2.01249 8 1.04356e-18 2.08227 8 1.97215e-31
2.14458 8.125 0 2.14473 8.125 0 2.02011 8 0 2.01997
9 6.90882e-18 2.30391 9 -3.1382e-18 2.55156 9.5 -1.00974e-28 2.57778 9.5
0 2.08482 9 -2.52435e-29 2.05574 10 -1.30369e-17 2.59966 10 0
3.0906 11 0 3.13758 12 0 3.16753 13 0 3.18143
14 0 3.1861 15 2.34283e-17 3.18716 -5 0 3.13082 -5
-2.8246e-17 4.11557 -4.00039 0 4.08378 -3.0018 -5.42101e-20 4.04421 -3.00113 -5.96311e-18
3.54412 -2 0 3.5 -2 -5.16988e-26 3.28376 -2 0 3.5
1.25056 1.35525e-20 3.00462 1.15858 0 3.00379 1.14482 0 3.25366 1.25048
-1.35525e-20 3.25461 3 0 3 3 -1.28799e-17 3.25 3.25 0
3.25 3.25 0 3 4 0 3 4 -1.89592e-18 3.25
4.00002 0 3.25 4 1.29247e-26 3 5 3.23117e-27 3.00777 5
4.56496e-18 3.25741 5.25 0 3.25778 5.25 3.23117e-27 3.00815 6 8.07794e-28
3.00926 6 -8.18032e-18 3.25887 6.25 0 3.2592 6.25 0 3.00959
7 4.03897e-28 3.0105 7 -1.44313e-18 3.26012 7.25 0 3.26039 7.25
0 3.01077 8 0 3.01729 8 9.51297e-18 3.26675 8.25 -1.00974e-28
3.28251 8.25 0 3.03422 9 -1.13316e-17 3.54219 9.5 2.01948e-28 3.56373
9.5 0 3.07075 9 0 3.04688 10 1.44621e-17 3.58154 10
0 4.07248 11 0 4.11006 12 0 4.13402 13 0
4.14514 14 0 4.14888 15 -2.58351e-17 4.14973 -5 7.05274e-17 5.09312
-3.99993 0 5.08025 -3.00007 2.1684e-19 5.04778 -2.00009 1.35525e-20 5.00153 -2.00038
-3.91939e-17 4.50134 -2.00045 0 4.00114 -2.50021 -5.28549e-18 4.00124 2.00133 2.71051e-20
4.00354 2.001 2.18196e-17 4.50355 2.5 2.06795e-25 4.5 2.5 0 4
3 0 4 3 -3.80475e-17 4.5 3.5 1.03398e-25 4.5 3.5
0 4 4 -1.03398e-25 4 4 -4.06264e-17 4.5 4.5 0
4.5 4.5 -5.16988e-26 4.49997 4.00003 1.03398e-25 4 6 1.29247e-26 4.00805
6 0 4.00873 6.49942 -6.72084e-25 4.50825 6.5 0 4.50825 6.5
0 4.00867 7 0 4.00923 7 -1.07652e-17 4.5082 7.5 0
4.50825 7.5 0 4.00941 8 0 4.01411 8 8.79829e-18 4.51234
8.5 0 4.52411 8.5 0 4.0275 9.5 -4.03897e-28 4.05671 9
0 4.0375 9 -1.14067e-17 4.53281 9 0 5.04224 10 0
5.05436 11 -4.03897e-28 5.08255 12 0 5.10052 13 -1.00974e-28 5.10886
14 0 5.11166 15 -5.02169e-17 5.1123 -5 5.94956e-18 6.06208 -3.9997
-1.0842e-19 6.05349 -2.99997 -1.35525e-20 6.0012 -1.99997 0 6.00128 -0.999976 5.33156e-17
5.00167 -1.50007 -1.58565e-17 5.00158 -0.999953 0 6.00136 6.79777e-05 -7.72494e-18 5.00191
-0.49994 -3.70797e-17 5.00179 5.0325e-05 0 6.0014 1.00008 2.57769e-17 5.00203 0.500073
-1.10318e-17 5.00204 1.00007 0 6.0014 2.0004 -1.35525e-20 5.74227 1.69151 -1.35525e-20
5.00239 1.50013 -4.32868e-17 5.00186 2.00025 0 6.00134 2.99998 9.42159e-22 6
6.00005 5.29396e-23 5.00703 5.50018 2.11758e-22 5.00709 5.38228 2.11758e-22 5.00695 6.00006
0 5.03909 7 0 5.00703 6.5 -2.46811e-17 5.00709 6.96544 -7.41154e-22
6.00469 7.00005 -5.29396e-23 6.00469 8 2.81435e-24 5.02081 7.49917 1.22785e-25 5.00709
8.00001 -6.61744e-24 6.01366 8.99969 3.26672e-24 6.02817 2.00083 -2.71051e-20 5.00325 3
2.06795e-25 6 3 -1.58161e-18 5 2.5 0 5 4 0
6 4 -3.39991e-17 5 3.5 1.03398e-25 5 5.0014 0 5.00651
4.5 0 5 5 5.16988e-26 6 6.00046 0 6.00466 8
0 5.02048 7.5 0 5.00709 8.5 0 5.02072 9 3.23117e-27
6.02817 10 -1.61559e-27 6.03624 11 8.07794e-28 6.05503 12 -4.03897e-28 6.06701
13 0 6.07257 14 0 6.07444 15 3.70132e-17 6.07486 -5
-3.24312e-17 7.03104 -3.99982 0 7.02674 -2.99998 0 7.00061 -1.99998 6.77626e-21
7.00065 -0.999976 0 7.00068 2.48667e-05 6.77626e-21 7.0007 1.00003 -6.77626e-21 7.0007
2.00006 -6.77626e-21 7.00068 2.60139 0 7.00101 7.00005 0 6.16302 7.98805
3.30872e-24 7.00678 8 0 7.00683 8.99921 0 7.01409 3.00043 0
7.00122 4 0 7 5 0 7 6.00035 -6.77626e-21 7.00232
7.00003 0 7.00234 9 0 7.01409 10 0 7.01812 11
0 7.02752 12 0 7.03351 13 0 7.03629 14 0
7.03722 15 2.98328e-17 7.03743 -4 -7.90671e-21 8 -5 -1.84332e-21 7.99999
-3 6.79012e-22 7.99999 -2 8.81361e-22 7.99999 -1 -2.28726e-21 7.99999 7.32374e-09
8.87565e-22 7.99999 1 2.82544e-21 7.99998 2 2.41806e-21 7.99998 8 -1.70606e-24
7.99828 -4 0 8 -5 -5.16988e-26 8 -3 0 8
-2 -1.03398e-25 8 -1 0 8 6.95393e-09 0 8 1
0 8 2 0 8 3 -1.03398e-25 8 4 0
8 5 0 8 6 0 8 7 0 8
8 6.46235e-27 8 9 0 8 10 0 8 11
8.07794e-28 8 12 4.03897e-28 8 13 0 8 14 0
8 15 -5.04871e-29 8 -0.999964 1.05879e-22 0.01875 -0.999962 2.11758e-22 0.0792239
-0.937452 -2.11758e-22 0.0789879 -0.937452 -7.67624e-19 0.01875 -0.0102783 0 0.985301 -0.0157641
-6.77626e-21 0.985342 -0.0153844 0 0.990908 1.99923 1.13841e-18 0.0752478 1.99924 0
0.0183062 1.93651 -3.82181e-18 0.01719 1.93651 -1.35525e-20 0.072745 1.93761 -1.36881e-18 1.0004
2.00009 0 1.00025 2.00004 0 0.937788 1.93753 -2.71051e-20 0.937954 -0.93899
-3.38813e-21 0.938435 -1.00144 1.69407e-21 0.938476 0.000497998 -7.04731e-19 0.985218 -0.0147548 -6.77626e-21
1.00012 0.969069 -2.98156e-18 0.009375 0.969041 2.71051e-20 0.0378507 0.0157615 0 0.986027
-0.00102467 -2.20906e-18 1.93926 -0.000889311 0 2.00183 0.0617038 0 2.00198 0.0615898
0 1.93943 2.00014 3.97089e-18 1.06267 1.93771 0 1.06275 2 0
1.99999 2 -1.05879e-22 1.93749 1.9375 0 1.93749 1.9375 1.8036e-18 1.99999
1.00094 -4.03865e-18 1.94198 0.9383 0 1.94194 0.93837 1.35525e-20 2.00449 1.06352
0 1.94204 2.06193 -1.35525e-20 0.0765379 2.06193 -4.68917e-18 0.0186528 3 -1.81039e-18
0.0799561 3 1.32349e-23 0.01875 2.9375 1.22555e-18 0.01875 2.9375 0 0.079892
2.06256 -6.77626e-21 1.00015 2.06253 -6.77626e-21 0.937681 2.9375 -2.42535e-18 1.00249 3
0 1.00322 3 -6.61744e-24 0.941243 2.9375 0 0.940625 0.50047 6.77626e-21
0.027037 0.50044 -6.77626e-21 0.00937499 0.469159 0 0.00937489 0.469163 0 0.011084
-0.0309658 0 1.00178 -0.0288823 0 1.00037 -0.0311024 1.69407e-21 1.0004 -1
2.65061e-18 1.9375 -1 0 2 -0.9375 -8.27181e-25 2 -0.9375 0
1.9375 -0.0635166 5.74627e-18 2.00167 -0.0635912 0 1.93911 2.06259 0 1.06261
3 -3.76144e-18 1.06544 2.93751 -1.32349e-23 1.06468 2.0625 0 2 2.0625
5.29396e-23 1.93749 3 0 2 3 0 1.9375 2.9375 2.06795e-25
1.9375 2.9375 -5.82667e-18 2 -0.0282619 0 1.029 0.00353532 0 1.02858
0.000751005 5.29396e-23 1.43704 0.00111654 0 1.43671 0.000760055 0 1.43671 0.000285858
2.71051e-20 0.498141 0.000156034 0 0.484128 -0.0155977 0 0.48402 -0.0152721 7.86047e-19
0.496509 -0.501601 -3.38813e-21 0.500645 -0.439154 -6.77626e-21 0.500755 -0.439077 -1.35525e-20 0.469314
-0.439023 1.35525e-20 0.437969 -0.501413 1.86347e-18 0.43787 -0.501826 0 1.00057 -0.439211
0 1.00054 -0.439163 -3.38813e-21 0.937938 -0.501777 3.66935e-18 0.937998 -0.501723 1.69407e-21
0.563398 -0.439157 -3.38813e-21 0.563487 0.500489 -3.38813e-21 0.0380538 0.469222 6.77626e-21 0.038325
0.0160838 -1.6263e-18 0.498552 0.0160288 5.42101e-20 0.483976 0.486228 0 0.487123 0.491214
-1.0842e-19 0.502479 0.492708 5.42101e-20 0.504765 0.50055 0 0.496218 0.507957 0
0.037948 1.00164 0 0.502496 1.00002 -1.0842e-19 0.486158 0.981588 -5.42101e-20 0.484933
0.982133 1.0842e-19 0.488709 0.988978 0 0.498108 0.500602 0 0.984593 0.500842
1.35525e-20 0.98278 0.493365 -1.35525e-20 0.983045 0.510209 0 0.999714 0.515104 -5.42101e-20
0.998796 0.51601 1.35525e-20 0.981869 1.01493 0 0.501977 1.01456 0 0.487268
1.93852 7.96889e-18 0.50049 2.00137 -1.35525e-20 0.500497 2.00112 -1.35525e-20 0.437781 1.93848
0 0.437755 1.00241 1.0842e-18 0.515574 1.01421 5.42101e-20 0.514355 1.967 1.69407e-21
0.563175 2.00134 0 0.549347 1.93851 0 0.563152 -0.499479 1.21973e-19 0.0738711
-0.43682 -1.69407e-21 0.0700973 -0.436806 -1.79793e-18 0.0140688 -0.499477 2.11758e-22 0.0169442 0.531691
2.24972e-18 0.009375 0.531738 0 0.0376102 0.982897 1.0842e-19 0.495945 0.485506 0
0.983329 0.485307 -8.13152e-19 1.0033 0.498394 0 1.00212 2.00133 -3.38813e-21 0.563203
-0.00096927 0 1.5006 0.0614961 0 1.50042 0.061972 0 1.43772 0.500021
-2.71051e-20 1.50241 0.499988 0 1.47142 0.46837 0 1.47148 0.468409 -3.52366e-19
1.50251 0.504906 0 1.01011 0.511229 -1.0842e-19 1.01789 0.531565 0 1.50217
[...]
POINT_DATA 14144
FIELD attributes 1
U 3 14144 float
19.9818 0.000314033 0.00489773 20 0 0 20 0 0 19.9859 0.000308093
0.0147658 19.949 0.000671515 0.0381572 19.9324 0.000665691 0.0245474 19.9346 0.000628728 0.00940154
18.9716 0.235592 0.542233 18.5014 0.281711 0.544811 18.6905 0.346718 0.170527 19.1644
0.306569 0.1682 11.2324 -1.68183 -0.736792 11.3044 -1.65484 -0.726765 11.2398 -1.97877
-0.318801 11.144 -1.98188 -0.323578 12.2027 -1.2017 -0.627792 12.2546 -1.1715 -0.623246
12.3614 -1.69639 -0.267897 12.3085 -1.72225 -0.270204 12.9777 -0.74735 -0.568724 13.0232
-0.722073 -0.565604 13.0495 -1.23403 -0.238616 13.012 -1.26349 -0.240223 13.6753 -0.401927
-0.531049 14.2427 0.0954085 -0.825554 14.4339 0.14607 -0.813629 13.706 -0.583028 -0.326496
13.5938 -0.781868 -0.240347 16.1429 0.253037 -0.799221 17.5594 -0.10982 -0.75592 17.587
-0.0640469 -0.440084 15.5845 0.136662 -0.324478 14.7893 0.0202388 -0.421286 18.3146 0.0255074
-0.0876896 16.4793 0.116779 -0.270895 17.9286 -0.0614639 -0.395205 19.3711 -0.102228 -0.248872
19.5122 -0.018817 -0.0857641 18.4198 0.0163119 -0.0712759 19.5577 -0.0188388 -0.0631499 18.4839
0.0132268 -0.0602489 19.5868 -0.0185544 -0.049649 18.5174 0.0119915 -0.0543902 19.5998 -0.0184063
-0.0440689 19.6058 -0.0183322 -0.0420835 18.4978 0.0142484 -0.051069 20 0 0
19.9933 0.000294069 0.0213845 19.9767 0.000668018 0.052581 19.9603 0.000712605 0.0529164 19.394
0.00203397 0.343682 19.4215 0.00271793 0.365782 19.3709 0.00285993 0.397579 19.3294 0.00214956
0.379624 13.155 0.375274 8.22117 13.8345 0.33024 7.94492 13.587 0.407953 8.72231
12.8355 0.464776 9.17873 18.7442 -0.281348 -1.34873 19.172 -0.0460391 -1.14002 19.1792
-0.0440554 -1.12333 18.759 -0.275943 -1.32818 18.9291 -0.215147 -1.0923 19.257 -0.0254165
-0.93263 19.261 -0.0247483 -0.922962 18.938 -0.212185 -1.08027 19.0491 -0.17663 -0.935117
19.3115 -0.0186845 -0.806242 19.3145 -0.0185168 -0.800081 19.0554 -0.17476 -0.927418 19.3514
-0.0293318 -0.722486 19.5848 0.0507634 -0.601006 19.5689 0.0303475 -0.565637 19.1132 -0.16014
-0.760888 19.1242 -0.165868 -0.817881 19.828 0.0377694 -0.295715 20.047 0.037051 -0.156871
19.9729 0.0249582 -0.143045 19.2783 -0.148538 -0.300644 19.2194 -0.159117 -0.465692 19.9852
0.0197281 -0.126054 20.069 0.0133832 -0.0553285 20.0482 0.00752635 -0.0317101 20.0508 0.0066195
-0.0191586 20.0529 0.00642222 -0.0134572 20.0538 0.00638247 -0.0119523 20.0541 0.00645354 -0.0114869
20 0 0 20 2.15743e-08 1.74185e-06 19.999 0.000256741 0.020731 19.9967
0.000583131 0.0473236 19.9881 0.000675847 0.0550374 20 0 0 20.6547 0.0368727
0.0818572 20.5979 0.0314134 0.0921365 20.5911 0.0322622 0.0414356 20.6453 0.0379493 0.0239325
20.0743 0.0245021 -0.157845 20.0744 0.0243639 -0.157574 20.0744 0.0243566 -0.157232 20.0756
0.0252135 -0.120392 20.0757 0.0229074 -0.112543 20.076 0.0228041 -0.110444 20.076 0.0250871
-0.118162 20.0822 0.0230121 -0.0942582 20.0812 0.0210557 -0.0878299 20.0816 0.0209302 -0.0868128
20.0826 0.0228647 -0.0931869 20.0866 0.0205985 -0.0821729 20.085 0.0189777 -0.0762911 20.0851
0.0188431 -0.075867 20.0867 0.0204432 -0.0817313 20.0854 0.017067 -0.0709564 20.0839 0.0158541
-0.0659422 20.0839 0.0157517 -0.065624 20.0874 0.0182001 -0.0763434 20.0873 0.0183699 -0.0767222
20.079 0.0129464 -0.052561 20.0757 0.0101612 -0.0406169 20.0742 0.00991166 -0.0387492 20.0821
0.0152815 -0.0627941 20.085 0.0165172 -0.0689493 20.0727 0.00930849 -0.0341946 20.0663 0.00623564
-0.0217883 20.0629 0.00539938 -0.0139349 20.0615 0.00541377 -0.00935474 20.0613 0.00557872 -0.0071278
20.062 0.00574922 -0.00630602 20.0626 0.00581755 -0.00596334 20 0 0 20
0 0 20.0015 0.000208059 0.016268 20.0057 0.000454641 0.0352831 20.0026 0.000537261
0.0435865 20.0095 0.000936395 0.0728884 20.0042 0.00101146 0.0808952 20.0095 0.000936394 0.0728882
20.2233 0.00713821 0.0383072 20.2223 0.00697739 0.0525053 20.1855 0.00537929 0.0498871 20.1871
0.00552134 0.0382089 20.1277 0.00805102 -0.0792352 20.1217 0.00642805 -0.0592435 20.1124 0.00645823
-0.0600425 20.1166 0.00806309 -0.0782118 20.0944 0.00801606 -0.0680768 20.0927 0.00647117 -0.0552197
20.0927 0.00647117 -0.0552196 20.0944 0.00801606 -0.0680767 20.0812 0.00779038 -0.0523222 20.0795
0.0063335 -0.0441892 20.0776 0.00628525 -0.0416964 20.0796 0.00772016 -0.0490505 20.0765 0.0074774
-0.0411336 20.0739 0.0061131 -0.0353519 20.0731 0.00604971 -0.0336482 20.0758 0.00738947 -0.0390793
20.0744 0.00712928 -0.0343851 20.0711 0.00586025 -0.0295836 20.0705 0.00580081 -0.0285142 20.0739
0.00704748 -0.0331949 20.0723 0.00680942 -0.0301727 20.0687 0.00562403 -0.0257184 20.0679 0.00556606
-0.0247869 20.0716 0.00673829 -0.0292072 20.0622 0.00460895 -0.019387 20.0609 0.00461022 -0.0180755
20.0681 0.00657013 -0.0248773 20.0695 0.00659165 -0.0265395 20.0597 0.00447729 -0.0165412 20.0523
0.00329903 -0.0122916 20.05 0.00315627 -0.0098085 20.0483 0.00301348 -0.0075664 20.0477 0.00288386
-0.00576919 20.0477 0.00280714 -0.00470153 20.0478 0.00278 -0.00427427 20 0 0
20.0021 0.000166784 0.0111483 20.0073 0.000354944 0.0229524 20.018 0.000584171 0.0353027 20.0188
0.000687568 0.0456161 20.0153 0.000790619 0.0575117 20.0088 0.000624019 0.0481711 20.1166 0.00335394
-0.00114284 20.0949 0.00247328 0.00408414 20.0912 0.00261291 -0.00650127 20.1086 0.00352794 -0.0157434
20.0989 0.00364313 -0.0243088 20.0855 0.00271313 -0.0134268 20.0795 0.00278762 -0.0174952 20.0897
0.0037215 -0.0283892 20.082 0.00376257 -0.0293834 20.0739 0.00283564 -0.0193069 20.0689 0.00286022
-0.0198042 20.0689 0.00286027 -0.0198047 20.082 0.00376257 -0.0293833 20.0647 0.00368841 -0.0233176
20.0647 0.00368725 -0.0233098 20.0565 0.00280831 -0.0164816 20.0565 0.00280828 -0.0164803 20.0625
0.00364115 -0.0215631 20.0607 0.00359111 -0.0199939 20.0545 0.00277872 -0.0154042 20.0528 0.00274756
-0.0143711 20.0591 0.00354489 -0.0186123 20.0576 0.00349038 -0.0173059 20.0513 0.00271083 -0.0133364
20.0498 0.00269052 -0.012305 20.0561 0.00345391 -0.016084 20.0547 0.00351469 -0.0143237 20.0551
0.00343978 -0.0150495 20.0486 0.00264339 -0.0113312 20.0433 0.00212167 -0.0088356 20.0411 0.00207138
-0.00773293 20.039 0.00202382 -0.00628598 20.0374 0.00198348 -0.00478895 20.0364 0.00197649 -0.00357882
20.0358 0.00200489 -0.00292774 20.0354 0.00202662 -0.00270295 20 0 0 20.002
0.000136467 0.00680767 20.0067 0.000285379 0.0137526 20.0152 0.000449877 0.0195225 20.0348 0.00087677
0.042972 20.026 0.000739325 0.0422325 20.0271 0.000638535 0.0223303 20.0556 0.00123086 0.0403591
20.0461 0.00107852 0.0455415 20.0402 0.000846876 0.0206877 20.0734 0.00160519 0.0254557 20.0677
0.0014701 0.0361784 20.0514 0.00106103 0.0140497 20.0628 0.00142349 0.00546577 20.08 0.00186564
0.0125787 20.0805 0.0018354 0.016477 20.0571 0.00125138 0.00518102 20.057 0.00138665 -0.0016607
20.0538 0.00225994 -0.0131859 20.0571 0.00234657 -0.0141949 20.0576 0.00232751 -0.0140814 20.0535
0.00223655 -0.0130009 20.0497 0.00222931 -0.0119396 20.0523 0.00232146 -0.0130615 20.0417 0.00153107
-0.00708888 20.0416 0.00153103 -0.00707659 20.0465 0.0021828 -0.010477 20.0487 0.00227977 -0.0115689
20.0385 0.00151764 -0.00640089 20.0358 0.00150234 -0.00562618 20.0791 0.00191423 0.00627812 20.057
0.00138665 -0.00166085 20.0745 0.00211343 -0.00665279 20.0798 0.00210422 -0.00174412 20.0536 0.00146975
-0.00543349 20.0666 0.00222613 -0.0123033 20.072 0.00225976 -0.0110312 20.0592 0.00226593 -0.0137146
20.0636 0.0023366 -0.0141515 20.0492 0.00151608 -0.00712813 20.045 0.00153215 -0.00743143 20.0465
0.00218303 -0.0104784 20.0487 0.00227986 -0.0115683 20.0455 0.00222884 -0.00990035 20.0358 0.00150233
-0.00562594 20.0334 0.00148879 -0.00480082 20.0314 0.00147102 -0.00396392 20.0298 0.00145605 -0.00316307
20.0286 0.00144812 -0.00255048 20.0276 0.00144298 -0.00220749 20.027 0.00143957 -0.00205511 20
0 0 20.0018 0.000117618 0.00322543 20.0059 0.000242197 0.00634765 20.0131 0.000374947
0.00885179 20.0226 0.00051957 0.0101584 20.0328 0.000676161 0.00952651 20.0417 0.000834903 0.00677388
20.0469 0.000982131 0.00283078 20.0475 0.00104644 0.000893809 20.0408 0.00148361 -0.00647159 20.0339
0.00122919 -0.00300144 20.0339 0.00122915 -0.00299826 20.0313 0.0012217 -0.00267139 20.0479 0.00108909
-0.000391558 20.0462 0.00115556 -0.00220354 20.0433 0.00120148 -0.00311282 20.0399 0.00122464 -0.00335522
20.0368 0.0012322 -0.0032644 20.0313 0.0012217 -0.00267113 20.029 0.00121281 -0.0023179 20.0271
0.00120286 -0.0019572 20.0254 0.00119381 -0.00160738 20.0242 0.00118751 -0.00132473 20.023 0.00118524
-0.00114634 20.0223 0.00118475 -0.00106383 20.0017 0.000111479 2.96774e-09 20.0003 2.66922e-05 0
20.0056 0.000227929 7.6559e-08 20.0124 0.000350574 1.00887e-07 20.0211 0.000481851 1.337e-07 20.0305
0.000623378 1.41716e-07 20.0387 0.000766217 1.07833e-07 20.0438 0.000904359 5.65106e-08 20.0324 0.00113524
-5.20165e-06 20.0017 0.000111479 0 20.0003 2.66924e-05 0 20.0056 0.000227929 0
20.0124 0.000350573 0 20.0211 0.000481851 0 20.0305 0.000623377 0 20.0387
0.000766216 0 20.0438 0.000904358 0 20.0451 0.00100274 0 20.0438 0.00105913
0 20.0413 0.00110274 0 20.0383 0.00112639 0 20.0352 0.00113552 0
20.0324 0.00113507 0 20.0298 0.00113 0 20.0276 0.00112311 0 20.0257
0.00111611 0 20.0241 0.00110987 0 20.0228 0.00110562 0 20.0216 0.00110401
0 20.0208 0.00110346 -0.000315167 19.2147 -0.0066762 0.00465565 19.1678 -0.00675925 0.0187975
19.0954 -0.00867128 0.0207752 19.139 -0.00876924 0.00599983 12.6634 0.374486 8.06785 12.7932
0.346087 7.79215 13.0134 0.333583 7.6915 1.87208 0.895009 0.439127 9.30174 1.38211
0.545018 10.0076 1.41905 0.674605 2.27704 1.08797 0.823948 11.6571 -0.0620542 -3.59111
12.8278 -0.117964 -4.04275 7.83755 -0.807149 -2.07142 6.28139 -1.0609 -1.10249 19.2907
0.00143486 0.359238 19.3506 0.0013826 0.330072 12.4089 0.430882 8.60886 13.3783 0.312602
7.52464 19.5293 0.273755 0.167935 19.3278 0.199776 0.545858 11.943 0.542622 9.66924
20.1093 0.0144311 0.78765 20.1248 0.013036 0.705757 20.1697 0.014189 0.716988 20.1605
0.0158076 0.804029 16.1813 -0.317819 -4.48354 15.8391 -0.341968 -4.5343 20.288 0.0324489
-0.372375 20.2903 0.0367921 -0.424187 20.3152 0.0373908 -0.424162 20.3106 0.0329273 -0.370512
20.7195 0.0438082 0.0662243 20.7272 0.0421154 0.136163 20.6599 0.0355703 0.142471 20.7065
0.0451686 -9.71734e-05 1.71649 0.740648 0.132885 8.84904 1.36673 0.424566 5.75481 -1.17448
-1.41277 5.38291 -0.0810074 -0.55931 5.21151 0.054016 -0.525281 5.39251 -1.07798 -1.41169
13.8304 -0.231136 -4.28514 9.34895 -0.665718 -2.8154 17.4017 -0.714073 -2.982 17.4903
-0.69442 -2.88142 16.5354 -1.00976 -3.09885 16.4302 -1.0204 -3.19764 20.2319 -0.0528689
0.802515 20.5232 0.0284977 0.332222 20.2825 -0.0194054 0.3575 20.2515 -0.0275051 0.406291
13.8377 0.2542 6.77924 13.7321 0.26369 6.90245 13.7877 0.256049 6.80469 19.865
0.00339952 0.32838 19.8836 0.00328037 0.312557 19.8827 0.00352253 0.331857 19.8628 0.00362218
0.345828 20.0841 0.0119378 0.689262 20.0636 0.0131372 0.765305 16.4703 -0.328728 -4.38256
18.3493 -0.282959 -2.45876 18.2737 -0.300961 -2.55135 20.2668 0.03204 -0.372154 20.2672
0.0362907 -0.421976 20.1013 0.029305 -0.271492 20.0956 0.0329604 -0.295524 20.1002 0.0331241
-0.304459 20.1061 0.0294315 -0.279298 14.8273 0.215742 6.27595 14.4791 0.29187 7.45424
19.4277 0.0457934 2.226 19.4272 0.0458991 2.22892 19.4267 0.0458369 2.22757 0
0 0 1.75735 1.17368 -0.450743 -0.202818 0.458696 -0.525325 0 0
0 17.7287 -0.0445555 0.388068 17.2273 -0.0676744 0.52291 17.0584 -0.0832208 0.525228
16.9751 -0.0947016 0.476677 17.6125 -0.0590913 0.32135 18.4237 0.0105849 0.922775 18.1558
0.0149741 1.09624 17.9598 0.0134704 1.00509 18.2772 0.00895377 0.852253 17.8288 -0.0313436
0.427275 17.419 -0.0447003 0.540764 20.0508 -0.103218 1.09517 19.7583 -0.155779 1.18242
0.163037 0.0634571 -0.0194026 3.94462 1.69232 -0.488377 0.31369 -0.0851832 -0.134002 0
0 0 0 0 0 0.496421 0.352363 -0.47171 20.1052 -0.0932944
1.07794 0 0 0 0.855081 2.25929 0.489701 0.65777 2.15097 0.404366
0.438371 1.43351 0.26949 0 0 0 2.21418 1.5423 0.680864 2.44973
1.7057 0.747035 2.48953 1.85242 0.291474 3.17969 1.67183 0.934623 4.46681 2.35108
1.29446 2.50123 1.70605 0.814174 0.691357 1.81519 0.304817 0.912844 1.97254 0.542382
7.59685 2.01709 -3.80914 8.13388 2.17845 -3.81689 5.95944 0.578677 -3.55407 5.14537
0.393657 -3.45307 0 0 0 0.228872 0.820218 -0.0592788 9.42326 3.0876
-3.91301 9.30083 2.91454 -3.88836 9.25058 3.05806 -3.91668 17.9336 -0.0777156 -0.111045
17.5813 -0.111575 -0.242793 17.7238 -0.108716 -0.0950001 18.017 -0.0762142 -0.0410826 20.7066
0.0675632 0.311716 20.2804 -0.060739 1.01983 0 0 0 2.53719 2.00848
-0.196586 9.67352 3.3505 -2.7498 0 0 0 9.63092 3.1229 -3.908
19.6252 0.0375984 1.92656 19.7245 0.0451102 2.10072 19.5165 0.0564738 2.45837 22.0342
0.0652579 1.56431 22.4239 -0.0437208 1.5845 22.3293 -0.00989763 2.16418 21.9952 0.067933
2.01031 0.103186 0.106379 -0.460055 0.16504 0.170997 -0.929282 22.1024 0.0852403 1.17889
22.3749 -0.0559768 1.04676 9.68283 -2.68441 -3.00369 10.3199 -2.57747 -2.72795 9.47914
-2.80214 -1.57416 20.2021 0.100944 -1.12503 20.1407 0.108576 -1.31161 20.1858 0.109291
-1.36964 20.246 0.102186 -1.16735 20.7578 0.187247 -1.61119 20.7562 0.159248 -1.28001
20.666 0.144243 -1.29383 20.6523 0.164214 -1.60672 21.7688 0.28061 -1.02643 21.9381
0.227505 -0.737692 21.6717 0.180257 -0.368039 21.5645 0.209749 -0.602584 9.63101 -2.69308
-3.02611 7.67283 -3.14304 -0.620123 7.1831 -3.57811 -0.832277 16.5664 -0.164952 0.734066
15.8442 -0.139782 0.775308 15.8233 -0.277837 2.38655 16.2939 -0.278491 2.10068 12.833
0.5085 -2.99293 13.5281 0.522969 -1.87314 13.8801 0.662724 -1.16248 13.9426 0.769555
-0.862974 12.8913 0.748276 -2.3177 12.2396 0.671017 -3.76035 18.42 0.0879911 3.51457
18.474 0.120386 4.01824 17.9136 0.155424 4.99354 17.8339 0.217495 4.67502 17.8505
0.119829 4.24762 16.9878 0.482401 5.12023 17.7565 0.347596 5.25311 17.8616 0.316601
5.05285 17.1251 0.442842 5.2601 6.75027 -3.84987 -0.97722 9.00081 -2.73314 -3.26506
21.4365 0.227852 -0.782001 21.5736 0.311373 -1.21704 16.7727 -0.326422 -0.478389 16.2891
-0.346952 -1.43653 16.0718 -0.385821 -1.8884 15.9831 -0.430661 -2.15858 16.4378 -0.411798
-1.2222 16.7201 -0.387291 -0.564436 16.826 0.0475892 2.13744 16.1162 0.0725114 2.87352
15.1275 0.0842889 2.69132 16.2073 0.0518111 1.96086 -0.544227 -0.907118 1.08535 -0.441727
-0.980072 0.401645 0.0291728 -0.603314 0.204503 0.509577 -0.30797 0.0530566 0.554991 -0.384923
0.249527 0.349949 -0.641147 0.355608 0.196217 0.0788082 -1.18409 0.274269 -0.611789 4.85147
1.37557 -0.631302 5.25567 1.53753 0.102868 -1.64617 13.2255 0.402921 -2.48626 -0.714034
0.499864 1.3914 -0.789094 -0.229106 0.606364 -0.715566 -1.07876 0.439389 -0.680364 -0.318224
-0.108038 -0.582909 -0.31956 -0.0763875 -0.561383 -0.54782 -0.0916303 -0.657301 -0.560379 -0.109703
15.5273 0.0265338 0.508627 15.346 0.0462056 0.975025 13.4708 0.0933926 1.02566 13.3163
0.0898461 0.284017 14.0373 0.0640535 -0.0963972 20.4134 0.0641486 0.7476 20.3286 0.0763542
0.693767 20.6071 0.180376 0.219873 20.7074 0.172739 0.236388 18.7393 0.372834 8.27791
16.7552 0.12079 8.81571 16.9191 0.428987 8.44828 18.59 0.823814 7.86405 -1.19325
-0.710451 4.90697 -1.97708 -0.287478 -0.190252 14.4904 2.45678 -5.25643 16.8427 1.86296
-5.35658 16.6591 1.91017 -5.65242 14.3831 2.47541 -5.31463 20.8473 0.17526 -1.24866
20.8649 0.212663 -1.59421 16.9737 1.82959 -5.14529 15.4217 2.29666 -4.74661 15.6097
-0.366396 3.9026 16.0216 -0.381329 3.50777 16.5341 -0.389038 2.75095 17.8262 -0.22897
0.749887 0 0 0 -0.618582 0.698741 2.06132 -0.64814 0.675613 2.07324
0 0 0 13.309 0.0379859 -2.43748 13.9354 0.465271 -1.17725 13.1467
0.117572 -2.69381 11.5367 0.940337 -4.81971 11.7292 0.891963 -4.77251 13.1378 0.436468
-3.00857 13.3714 0.777572 -2.8008 14.1477 0.795829 -1.43294 14.0882 0.534507 -1.33001
-1.03855 -0.33943 1.12839 -0.973049 -0.297055 0.672852 -1.12715 -0.402765 0.671151 9.18517
2.67995 -3.86633 9.91469 3.11357 -3.91528 11.6607 2.84307 -3.93726 11.215 2.79607
-3.92789 11.5772 2.86577 -3.95341 18.5837 0.0116061 0.97079 18.367 0.0156693 1.1518
19.4256 0.0456803 2.22355 19.3643 0.037099 2.00308 19.5524 0.0314897 1.75827 19.4008
0.0104013 0.887807 19.4946 0.00994583 0.843942 19.4755 0.011614 0.939173 19.3687 0.0123263
0.996724 15.7509 0.652001 5.66988 15.2661 0.709453 5.41471 15.3675 0.677739 4.92043
12.564 -0.359699 4.32164 11.3601 -0.433388 5.67094 9.33917 -0.564832 6.92964 10.9721
-0.462547 5.43427 13.588 -0.287656 3.54262 12.8165 -0.341589 4.4704 15.556 -0.00777947
0.327976 15.6668 -0.0118479 0.433247 15.9266 -0.00993675 0.495167 15.8121 0.000569922 0.499052
0 0 0 -0.012175 1.26777 1.73052 1.03018 1.58573 1.44201 0
0 0 -0.0757168 2.18049 0.576411 -0.453736 1.93869 0.857847 -0.73738 -0.948862
1.49418 -0.688982 -1.17754 0.612821 3.73184 0.521926 -2.46162 3.63668 0.649854 -2.44895
3.34933 0.839287 -2.1924 3.3113 0.581754 -2.39952 0.722108 1.84322 0.466986 3.94764
0.275065 -2.45641 4.16139 0.483942 -2.34721 0.287185 -1.51668 9.33551 0.690329 -1.59588
9.75885 1.13245 -1.59499 9.80773 -2.99116 0.625207 3.99038 -3.09231 0.579476 3.98954
-3.43158 0.485441 4.02196 -3.34647 0.686963 4.18441 -3.14427 0.742555 4.10618 3.62886
1.03599 -2.49085 3.49482 1.05897 -2.0965 3.75142 0.569411 -2.69703 14.0122 0.199621
-1.19636 -0.681872 -0.0207421 1.52749 -0.493005 0.0339189 0.678647 -0.984262 -0.30085 1.40736
-0.402937 0.182413 1.42867 -0.263425 0.143663 1.31131 0.315783 0.32761 0.5163 8.85
1.82892 1.57719 13.6406 2.45918 0.671154 13.3978 2.29867 0.772317 9.29227 1.38361
2.11001 0 0 0 0 0 0 -0.863577 0.511698 0.260654
2.14735 -0.186735 -1.80807 3.07672 0.0204445 -2.31913 1.787 -0.441965 -2.11466 1.76276
-0.454407 -2.09686 2.13245 -0.194483 -1.80067 -0.200067 -0.391403 -1.73996 -0.197562 -0.396395
-1.93696 -0.146395 -0.494335 -1.75014 -0.252353 0.440307 -0.0692586 0.354961 1.17246 0.0225243
-0.428349 -0.140118 -0.0527103 0.762515 1.68802 2.04262 0.361919 1.78352 1.70814 -0.053105
1.62528 1.2524 -0.485528 0.981101 0.88646 -0.0960413 1.16661 1.49296 -0.788685 -0.380664
-0.157506 -0.742581 -0.556114 -0.154602 1.33475 1.57898 2.34072 0.678828 1.77642 1.91724
-0.859703 -0.314482 -0.224508 -0.656594 0.146023 -0.141659 2.00707 0.973461 2.52149 0.526077
0.963211 2.14214 7.94963 -1.85374 1.66851 7.25321 -2.41313 2.4488 8.25313 -2.66402
2.3119 8.56764 -2.07948 1.63886 4.38708 0.473584 -2.83484 3.22034 0.0688976 -2.22335
3.62689 0.304389 2.39732 2.97678 0.504061 2.47235 1.87001 1.15985 2.25227 7.59439
-0.932028 0.887153 7.40185 -1.56815 1.63208 7.89034 -1.7613 1.60942 14.6946 0.0389823
-0.348658 15.3351 0.000459301 0.117761 20.7989 0.165702 0.251226 20.4954 0.0536378 0.797346
-0.476891 1.92583 0.874147 19.299 1.28371 7.12705 19.6897 0.780988 7.43475 16.815
0.803794 7.70376 18.2589 1.26319 7.32606 -2.96953 0.609169 3.97029 18.8553 1.71034
6.7774 -0.100845 -0.450606 -1.26609 -0.129558 -0.30606 -1.01146 -0.202959 -0.338937 -1.3563
-0.201522 -0.388586 -1.62704 0.193581 -1.04199 -0.78924 -0.12267 -0.539776 -1.66343 10.8764
-1.75173 -0.285507 11.1559 -1.91111 -0.551033 10.6681 1.19009 -2.21735 10.3994 1.27973
-2.06238 9.14784 0.918676 -1.42423 8.75808 -1.72433 1.22995 9.06122 -1.84462 1.22216
9.90419 -1.53955 0.481593 9.71441 1.14146 -1.6819 -1.14701 1.99596 1.07958 0
0 0 0 0 0 8.00719 -1.80746 1.60392 8.14375 0.913397
-1.2742 -0.42623 -1.29115 7.9829 9.27441 1.27269 -0.429251 0.0872621 -0.00715488 3.94509e-05
0.795467 0.030771 0.0087156 2.87541 0.40875 -0.355857 17.3081 0.126657 -4.91382 19.6136
0.360601 -3.93949 19.6488 0.27286 -3.74803 17.636 0.0151003 -4.67811 19.6805 0.165953
-3.16044 18.3545 -0.0369029 -3.97238 18.1834 -0.0548037 -4.15525 19.6893 0.178637 -3.32052
19.7821 0.000707343 0.0131644 19.7761 0.000712598 0.0348453 19.7107 0.000518429 0.0430374 19.7085
0.000461534 0.015041 19.1792 -0.00619752 0.0368165 19.337 -0.00374214 0.00715609 19.3231 -0.00337253
0.0350922 19.8048 0.000949779 0.084141 19.8367 0.00112046 0.100064 19.781 0.00122875 0.131159
19.7478 0.000940617 0.106426 19.5023 0.00171717 0.286256 19.3296 0.000919476 0.30761 19.4516
0.000959094 0.258303 18.2433 -0.056452 -0.0177671 18.2414 -0.054503 -0.0291228 18.2086 -0.0549777
-0.0451693 4.85508 -1.61291 0.0629969 5.87281 -1.97628 0.153067 4.03506 -1.40957 0.293866