# vtk DataFile Version 2.0
track0
ASCII
DATASET POLYDATA
POINTS 15780 float
-1.001 -0.05 0.0011
-1.0008 -0.05 0.0011
-1.0006 -0.05 0.0011
-1.0004 -0.05 0.0011
-1.0002 -0.05 0.0011
-1 -0.05 0.0011
-0.9875 -0.05 0.0011
-0.975 -0.05 0.0011
-0.9625 -0.05 0.0011
-0.95 -0.05 0.0011
-0.9375 -0.05 0.00109999
-0.925 -0.05 0.00109999
-0.9125 -0.05 0.00109999
-0.9 -0.05 0.00109999
-0.8875 -0.05 0.00109999
-0.875 -0.05 0.00109999
-0.8625 -0.05 0.00109999
-0.85 -0.05 0.00109999
-0.8375 -0.05 0.00109998
-0.825 -0.0500001 0.00109998
-0.8125 -0.0500001 0.00109998
-0.8 -0.0500001 0.00109998
-0.7875 -0.0500001 0.00109998
-0.775 -0.0500001 0.00109998
-0.7625 -0.0500001 0.00109998
-0.75 -0.0500001 0.00109998
-0.7375 -0.0500001 0.00109997
-0.725 -0.0500001 0.00109997
-0.7125 -0.0500001 0.00109997
-0.7 -0.0500001 0.00109997
-0.6875 -0.0500001 0.00109997
-0.675 -0.0500001 0.00109997
-0.6625 -0.0500001 0.00109997
-0.65 -0.0500001 0.00109996
-0.6375 -0.0500001 0.00109996
-0.625 -0.0500001 0.00109996
-0.6125 -0.0500001 0.00109996
-0.6 -0.0500001 0.00109996
-0.5875 -0.0500001 0.00109996
-0.575 -0.0500001 0.00109996
-0.5625 -0.0500001 0.00109996
-0.55 -0.0500001 0.00109995
-0.5375 -0.0500001 0.00109995
-0.525 -0.0500001 0.00109995
-0.5125 -0.0500001 0.00109995
-0.5 -0.0500001 0.00109995
-0.4875 -0.0500001 0.00109995
-0.475 -0.0500001 0.00109995
-0.4625 -0.0500001 0.00109994
-0.45 -0.0500002 0.00109994
-0.4375 -0.0500002 0.00109994
-0.425 -0.0500002 0.00109994
-0.4125 -0.0500002 0.00109994
-0.4 -0.0500002 0.00109994
-0.3875 -0.0500002 0.00109994
-0.375 -0.0500002 0.00109994
-0.3625 -0.0500002 0.00109993
-0.35 -0.0500002 0.00109993
-0.3375 -0.0500002 0.00109993
-0.325 -0.0500002 0.00109993
-0.3125 -0.0500002 0.00109993
-0.3 -0.0500002 0.00109993
-0.2875 -0.0500002 0.00109993
-0.275 -0.0500002 0.00109993
-0.2625 -0.0500002 0.00109992
-0.25 -0.0500002 0.00109992
-0.2375 -0.0500002 0.00109992
-0.225 -0.0500002 0.00109992
-0.2125 -0.0500002 0.00109992
-0.2 -0.0500002 0.00109992
-0.1875 -0.0500002 0.00109992
-0.175 -0.0500002 0.00109992
-0.1625 -0.0500002 0.00109991
-0.15 -0.0500002 0.00109991
-0.1375 -0.0500002 0.00109991
-0.125 -0.0500002 0.00109991
-0.1125 -0.0500002 0.00109991
-0.1 -0.0500002 0.00109991
-0.0875 -0.0500002 0.00109991
-0.075 -0.0500002 0.00109991
-0.0625 -0.0500002 0.00109991
-0.05 -0.0500003 0.00109991
-0.0375 -0.0500003 0.0010999
-0.025 -0.0500003 0.0010999
-0.0125 -0.0500003 0.0010999
2.10607e-13 -0.0500003 0.0010999
0.0125 -0.0500003 0.0010999
0.025 -0.0500003 0.0010999
0.0375 -0.0500003 0.0010999
0.05 -0.0500003 0.0010999
0.0625 -0.0500003 0.0010999
0.075 -0.0500003 0.0010999
0.0875 -0.0500003 0.0010999
0.1 -0.0500003 0.00109989
0.1125 -0.0500003 0.00109989
0.125 -0.0500003 0.00109989
0.1375 -0.0500003 0.00109989
0.15 -0.0500003 0.00109989
0.1625 -0.0500003 0.00109989
0.175 -0.0500003 0.00109989
0.1875 -0.0500003 0.00109989
0.2 -0.0500003 0.00109989
0.2125 -0.0500003 0.00109989
0.225 -0.0500003 0.00109989
0.2375 -0.0500003 0.00109989
0.25 -0.0500003 0.00109989
0.2625 -0.0500003 0.00109988
0.275 -0.0500003 0.00109988
0.2875 -0.0500003 0.00109988
0.3 -0.0500003 0.00109988
0.3125 -0.0500003 0.00109988
0.325 -0.0500003 0.00109988
0.3375 -0.0500003 0.00109988
0.35 -0.0500003 0.00109988
0.3625 -0.0500003 0.00109988
0.375 -0.0500003 0.00109988
0.3875 -0.0500003 0.00109988
0.4 -0.0500004 0.00109988
0.4125 -0.0500004 0.00109988
0.425 -0.0500004 0.00109988
0.4375 -0.0500004 0.00109988
0.45 -0.0500004 0.00109988
0.4625 -0.0500004 0.00109988
0.475 -0.0500004 0.00109988
0.4875 -0.0500004 0.00109988
0.5 -0.0500004 0.00109988
0.5125 -0.0500004 0.00109988
0.525 -0.0500004 0.00109988
0.5375 -0.0500004 0.00109988
0.55 -0.0500004 0.00109988
0.5625 -0.0500004 0.00109988
0.575 -0.0500004 0.00109987
0.5875 -0.0500004 0.00109987
0.6 -0.0500004 0.00109987
0.6125 -0.0500004 0.00109987
0.625 -0.0500004 0.00109987
0.6375 -0.0500004 0.00109987
0.65 -0.0500004 0.00109987
0.6625 -0.0500004 0.00109987
0.675 -0.0500004 0.00109987
0.6875 -0.0500004 0.00109987
0.7 -0.0500004 0.00109987
0.7125 -0.0500004 0.00109987
0.725 -0.0500004 0.00109987
0.7375 -0.0500004 0.00109987
0.75 -0.0500004 0.00109987
0.7625 -0.0500004 0.00109987
0.775 -0.0500004 0.00109987
0.7875 -0.0500004 0.00109987
0.8 -0.0500004 0.00109987
0.8125 -0.0500004 0.00109987
0.825 -0.0500004 0.00109987
0.8375 -0.0500004 0.00109987
0.85 -0.0500004 0.00109987
0.8625 -0.0500004 0.00109987
0.875 -0.0500004 0.00109987
0.8875 -0.0500004 0.00109987
0.9 -0.0500004 0.00109987
0.9125 -0.0500005 0.00109988
0.925 -0.0500005 0.00109988
0.9375 -0.0500005 0.00109988
0.95 -0.0500005 0.00109988
0.9625 -0.0500005 0.00109988
0.975 -0.0500005 0.00109988
0.9875 -0.0500005 0.00109988
1 -0.0500005 0.00109988
1.0125 -0.0500005 0.00109988
1.025 -0.0500005 0.00109988
1.0375 -0.0500005 0.00109988
1.05 -0.0500005 0.00109988
1.0625 -0.0500005 0.00109988
1.075 -0.0500005 0.00109988
1.0875 -0.0500005 0.00109988
1.1 -0.0500005 0.00109988
1.1125 -0.0500005 0.00109988
1.125 -0.0500005 0.00109988
1.1375 -0.0500005 0.00109988
1.15 -0.0500005 0.00109988
1.1625 -0.0500005 0.00109988
1.175 -0.0500005 0.00109988
1.1875 -0.0500005 0.00109988
1.2 -0.0500005 0.00109988
1.2125 -0.0500005 0.00109988
1.225 -0.0500005 0.00109988
1.2375 -0.0500005 0.00109989
1.25 -0.0500005 0.00109989
1.2625 -0.0500005 0.00109989
1.275 -0.0500005 0.00109989
1.2875 -0.0500005 0.00109989
1.3 -0.0500005 0.00109989
1.3125 -0.0500005 0.00109989
1.325 -0.0500005 0.00109989
1.3375 -0.0500005 0.00109989
1.35 -0.0500005 0.00109989
1.3625 -0.0500005 0.00109989
1.375 -0.0500005 0.00109989
1.3875 -0.0500005 0.00109989
1.4 -0.0500005 0.00109989
1.4125 -0.0500005 0.00109989
1.425 -0.0500005 0.00109989
1.4375 -0.0500005 0.0010999
1.45 -0.0500005 0.0010999
1.4625 -0.0500005 0.0010999
1.475 -0.0500005 0.0010999
1.4875 -0.0500005 0.0010999
1.5 -0.0500006 0.0010999
1.5125 -0.0500006 0.0010999
1.525 -0.0500006 0.0010999
1.5375 -0.0500006 0.0010999
1.55 -0.0500006 0.0010999
1.5625 -0.0500006 0.0010999
1.575 -0.0500006 0.0010999
1.5875 -0.0500006 0.0010999
1.6 -0.0500006 0.0010999
1.6125 -0.0500006 0.00109991
1.625 -0.0500006 0.00109991
1.6375 -0.0500006 0.00109991
1.65 -0.0500006 0.00109991
1.6625 -0.0500006 0.00109991
1.675 -0.0500006 0.00109991
1.6875 -0.0500006 0.00109991
1.7 -0.0500006 0.00109991
1.7125 -0.0500006 0.00109991
1.725 -0.0500006 0.00109991
1.7375 -0.0500006 0.00109991
1.75 -0.0500006 0.00109991
1.7625 -0.0500006 0.00109992
1.775 -0.0500006 0.00109992
1.7875 -0.0500006 0.00109992
1.8 -0.0500006 0.00109992
1.8125 -0.0500006 0.00109992
1.825 -0.0500006 0.00109992
1.8375 -0.0500006 0.00109992
1.85 -0.0500006 0.00109992
1.8625 -0.0500006 0.00109992
1.875 -0.0500006 0.00109992
1.8875 -0.0500006 0.00109992
1.9 -0.0500006 0.00109992
1.9125 -0.0500006 0.00109993
1.925 -0.0500006 0.00109993
1.9375 -0.0500006 0.00109993
1.95 -0.0500006 0.00109993
1.9625 -0.0500006 0.00109993
1.975 -0.0500006 0.00109993
1.9875 -0.0500006 0.00109993
2 -0.0500006 0.00109993
2.0125 -0.0500006 0.00109993
2.025 -0.0500006 0.00109993
2.0375 -0.0500006 0.00109993
2.05 -0.0500006 0.00109993
2.0625 -0.0500006 0.00109994
2.075 -0.0500006 0.00109994
2.0875 -0.0500006 0.00109994
2.1 -0.0500006 0.00109994
2.1125 -0.0500006 0.00109994
2.125 -0.0500006 0.00109994
2.1375 -0.0500006 0.00109994
2.15 -0.0500006 0.00109994
2.1625 -0.0500006 0.00109994
2.175 -0.0500007 0.00109994
2.1875 -0.0500007 0.00109994
2.2 -0.0500007 0.00109994
2.2125 -0.0500007 0.00109994
2.225 -0.0500007 0.00109995
2.2375 -0.0500007 0.00109995
2.25 -0.0500007 0.00109995
2.2625 -0.0500007 0.00109995
2.275 -0.0500007 0.00109995
2.2875 -0.0500007 0.00109995
2.3 -0.0500007 0.00109995
2.3125 -0.0500007 0.00109995
2.325 -0.0500007 0.00109995
2.3375 -0.0500007 0.00109995
2.35 -0.0500007 0.00109995
2.3625 -0.0500007 0.00109995
2.375 -0.0500007 0.00109995
2.3875 -0.0500007 0.00109996
2.4 -0.0500007 0.00109996
2.4125 -0.0500007 0.00109996
2.425 -0.0500007 0.00109996
2.4375 -0.0500007 0.00109996
2.45 -0.0500007 0.00109996
2.4625 -0.0500007 0.00109996
2.475 -0.0500007 0.00109996
2.4875 -0.0500007 0.00109996
2.5 -0.0500007 0.00109996
2.5125 -0.0500007 0.00109996
2.525 -0.0500007 0.00109996
2.5375 -0.0500007 0.00109996
2.55 -0.0500007 0.00109996
2.5625 -0.0500007 0.00109997
2.575 -0.0500007 0.00109997
2.5875 -0.0500007 0.00109997
2.6 -0.0500007 0.00109997
2.6125 -0.0500007 0.00109997
2.625 -0.0500007 0.00109997
2.6375 -0.0500007 0.00109997
2.65 -0.0500007 0.00109997
2.6625 -0.0500007 0.00109997
2.675 -0.0500007 0.00109997
2.6875 -0.0500007 0.00109997
2.7 -0.0500007 0.00109997
2.7125 -0.0500007 0.00109997
2.725 -0.0500007 0.00109997
2.7375 -0.0500007 0.00109997
2.75 -0.0500007 0.00109997
2.7625 -0.0500007 0.00109998
2.775 -0.0500007 0.00109998
2.7875 -0.0500007 0.00109998
2.8 -0.0500007 0.00109998
2.8125 -0.0500007 0.00109998
2.825 -0.0500007 0.00109998
2.8375 -0.0500007 0.00109998
2.85 -0.0500007 0.00109998
2.8625 -0.0500008 0.00109998
2.875 -0.0500008 0.00109998
2.8875 -0.0500008 0.00109998
2.9 -0.0500008 0.00109998
2.9125 -0.0500008 0.00109998
2.925 -0.0500008 0.00109998
2.9375 -0.0500008 0.00109998
2.95 -0.0500008 0.00109998
2.9625 -0.0500008 0.00109998
2.975 -0.0500008 0.00109998
2.9875 -0.0500008 0.00109998
3 -0.0500008 0.00109998
3.0125 -0.0500008 0.00109999
3.025 -0.0500008 0.00109999
3.0375 -0.0500008 0.00109999
3.05 -0.0500008 0.00109999
3.0625 -0.0500008 0.00109999
3.075 -0.0500008 0.00109999
3.0875 -0.0500008 0.00109999
3.1 -0.0500008 0.00109999
3.1125 -0.0500008 0.00109999
3.125 -0.0500008 0.00109999
3.1375 -0.0500008 0.00109999
3.15 -0.0500008 0.00109999
3.1625 -0.0500008 0.00109999
3.175 -0.0500008 0.00109999
3.1875 -0.0500008 0.00109999
3.2 -0.0500008 0.00109999
3.2125 -0.0500008 0.00109999
3.225 -0.0500008 0.00109999
3.2375 -0.0500008 0.00109999
3.25 -0.0500008 0.00109999
3.2625 -0.0500008 0.00109999
3.275 -0.0500008 0.00109999
3.2875 -0.0500008 0.00109999
3.3 -0.0500008 0.00109999
3.3125 -0.0500008 0.00109999
3.325 -0.0500008 0.00109999
3.3375 -0.0500008 0.00109999
3.35 -0.0500008 0.0011
3.3625 -0.0500008 0.0011
[...]
POINT_DATA 15780
 FIELD attributes 1
U 3 15780 float
30.0002 	-7.01785e-06 	-6.30586e-06 30.0002 	-6.84336e-06 	-6.51453e-06 30.0002 	-6.66887e-06 	-6.7232e-06 30.0002 	-6.49438e-06 	-6.93186e-06 30.0002 	-6.3199e-06 	-7.14053e-06 30.0002 	-6.14541e-06 	-7.3492e-06 30.0004 	-1.23851e-05 	-1.26101e-06 30.0004 	-1.23851e-05 	-1.26101e-06 30.0004 	-1.2385e-05 	-1.26101e-06 30.0004 	-1.2385e-05 	-1.261e-06 30.0002 	-7.04842e-08 	-6.84366e-06 30.0005 	-1.0709e-05 	-1.68706e-06 30.0005 	-1.0709e-05 	-1.68706e-06 30.0005 	-1.0709e-05 	-1.68706e-06 30.0005 	-1.07089e-05 	-1.68706e-06 30.0002 	-7.21595e-08 	-6.59607e-06 30.0005 	-9.95838e-06 	-2.08024e-06 30.0005 	-9.95837e-06 	-2.08024e-06 30.0005 	-9.95836e-06 	-2.08024e-06 30.0005 	-9.95835e-06 	-2.08024e-06 30.0003 	-4.59302e-06 	-6.24725e-06 30.0005 	-9.69161e-06 	-2.34897e-06 30.0005 	-9.6916e-06 	-2.34897e-06 30.0005 	-9.69159e-06 	-2.34896e-06 30.0005 	-9.69158e-06 	-2.34896e-06 30.0003 	-7.57419e-08 	-6.57614e-06 30.0005 	-9.5234e-06 	-2.49784e-06 30.0005 	-9.5234e-06 	-2.49784e-06 30.0005 	-9.52339e-06 	-2.49784e-06 30.0005 	-9.52338e-06 	-2.49783e-06 30.0003 	-7.74924e-08 	-6.52626e-06 30.0005 	-9.38704e-06 	-2.55608e-06 30.0005 	-9.38703e-06 	-2.55608e-06 30.0005 	-9.38702e-06 	-2.55608e-06 30.0005 	-9.38701e-06 	-2.55607e-06 30.0003 	-4.26682e-06 	-6.08528e-06 30.0005 	-9.27961e-06 	-2.55831e-06 30.0005 	-9.27961e-06 	-2.5583e-06 30.0005 	-9.2796e-06 	-2.5583e-06 30.0005 	-9.27959e-06 	-2.5583e-06 30.0003 	-4.19921e-06 	-5.97789e-06 30.0006 	-9.1874e-06 	-2.53044e-06 30.0006 	-9.18739e-06 	-2.53044e-06 30.0006 	-9.18738e-06 	-2.53044e-06 30.0006 	-9.18737e-06 	-2.53043e-06 30.0003 	-8.27776e-08 	-6.20126e-06 30.0006 	-9.09733e-06 	-2.48119e-06 30.0006 	-9.09732e-06 	-2.48119e-06 30.0006 	-9.09731e-06 	-2.48119e-06 30.0006 	-9.0973e-06 	-2.48119e-06 30.0003 	-8.45277e-08 	-6.05423e-06 30.0006 	-9.00487e-06 	-2.41362e-06 30.0006 	-9.00486e-06 	-2.41362e-06 30.0006 	-9.00485e-06 	-2.41361e-06 30.0006 	-9.00485e-06 	-2.41361e-06 30.0003 	-8.62838e-08 	-5.88782e-06 30.0006 	-8.90873e-06 	-2.32973e-06 30.0006 	-8.90872e-06 	-2.32973e-06 30.0006 	-8.90871e-06 	-2.32973e-06 30.0006 	-8.9087e-06 	-2.32973e-06 30.0003 	-3.93779e-06 	-5.36346e-06 30.0006 	-8.80869e-06 	-2.23275e-06 30.0006 	-8.80868e-06 	-2.23275e-06 30.0006 	-8.80867e-06 	-2.23275e-06 30.0006 	-8.80867e-06 	-2.23275e-06 30.0003 	-3.864e-06 	-5.16475e-06 30.0006 	-8.70439e-06 	-2.12415e-06 30.0006 	-8.70439e-06 	-2.12415e-06 30.0006 	-8.70438e-06 	-2.12414e-06 30.0006 	-8.70437e-06 	-2.12414e-06 30.0003 	-9.15449e-08 	-5.28457e-06 30.0006 	-8.59621e-06 	-2.00508e-06 30.0006 	-8.5962e-06 	-2.00508e-06 30.0006 	-8.5962e-06 	-2.00508e-06 30.0006 	-8.59619e-06 	-2.00508e-06 30.0003 	-3.70439e-06 	-4.71939e-06 30.0007 	-8.48484e-06 	-1.87668e-06 30.0007 	-8.48484e-06 	-1.87668e-06 30.0007 	-8.48483e-06 	-1.87668e-06 30.0007 	-8.48483e-06 	-1.87668e-06 30.0003 	-3.6193e-06 	-4.47431e-06 30.0007 	-8.3715e-06 	-1.73884e-06 30.0007 	-8.3715e-06 	-1.73884e-06 30.0007 	-8.37149e-06 	-1.73884e-06 30.0007 	-8.37149e-06 	-1.73884e-06 30.0004 	-9.67954e-08 	-4.54319e-06 30.0007 	-8.25995e-06 	-1.59804e-06 30.0007 	-8.25995e-06 	-1.59804e-06 30.0007 	-8.25994e-06 	-1.59804e-06 30.0007 	-8.25994e-06 	-1.59804e-06 30.0004 	-9.85475e-08 	-4.27124e-06 30.0007 	-8.14797e-06 	-1.46324e-06 30.0007 	-8.14796e-06 	-1.46324e-06 30.0007 	-8.14796e-06 	-1.46324e-06 30.0007 	-8.14795e-06 	-1.46323e-06 30.0004 	-1.00294e-07 	-3.98927e-06 30.0007 	-8.01991e-06 	-1.32073e-06 30.0007 	-8.01991e-06 	-1.32073e-06 30.0007 	-8.0199e-06 	-1.32072e-06 30.0007 	-8.0199e-06 	-1.32072e-06 30.0004 	-3.25099e-06 	-3.37795e-06 30.0007 	-7.88113e-06 	-1.16801e-06 30.0007 	-7.88113e-06 	-1.16801e-06 30.0007 	-7.88113e-06 	-1.16801e-06 30.0007 	-7.88112e-06 	-1.16801e-06 30.0004 	-1.03747e-07 	-3.40289e-06 30.0007 	-7.74523e-06 	-1.00788e-06 30.0007 	-7.74522e-06 	-1.00788e-06 30.0007 	-7.74522e-06 	-1.00788e-06 30.0007 	-7.74522e-06 	-1.00788e-06 30.0004 	-1.05474e-07 	-3.10328e-06 30.0007 	-7.61111e-06 	-8.41867e-07 30.0007 	-7.61111e-06 	-8.41867e-07 30.0007 	-7.61111e-06 	-8.41867e-07 30.0007 	-7.61111e-06 	-8.41866e-07 30.0004 	-2.93186e-06 	-2.48789e-06 30.0007 	-7.47536e-06 	-6.70216e-07 30.0007 	-7.47536e-06 	-6.70216e-07 30.0007 	-7.47535e-06 	-6.70216e-07 30.0007 	-7.47535e-06 	-6.70216e-07 30.0004 	-2.8254e-06 	-2.18313e-06 30.0007 	-7.34326e-06 	-4.97063e-07 30.0007 	-7.34326e-06 	-4.97063e-07 30.0007 	-7.34325e-06 	-4.97063e-07 30.0007 	-7.34325e-06 	-4.97063e-07 30.0004 	-1.10601e-07 	-2.17112e-06 30.0007 	-7.21548e-06 	-3.17336e-07 30.0007 	-7.21548e-06 	-3.17336e-07 30.0007 	-7.21548e-06 	-3.17336e-07 30.0007 	-7.21548e-06 	-3.17336e-07 30.0004 	-1.12291e-07 	-1.85338e-06 30.0007 	-7.09876e-06 	-1.3823e-07 30.0007 	-7.09876e-06 	-1.3823e-07 30.0007 	-7.09876e-06 	-1.3823e-07 30.0007 	-7.09876e-06 	-1.3823e-07 30.0004 	-1.13961e-07 	-1.54904e-06 30.0007 	-6.98545e-06 	4.08397e-08 30.0007 	-6.98545e-06 	4.08397e-08 30.0007 	-6.98545e-06 	4.08397e-08 30.0007 	-6.98545e-06 	4.08397e-08 30.0004 	-2.439e-06 	-9.58513e-07 30.0007 	-6.87186e-06 	2.14652e-07 30.0007 	-6.87187e-06 	2.14652e-07 30.0007 	-6.87187e-06 	2.14652e-07 30.0007 	-6.87187e-06 	2.14652e-07 30.0004 	-2.34741e-06 	-6.82311e-07 30.0007 	-6.75377e-06 	3.90705e-07 30.0007 	-6.75377e-06 	3.90705e-07 30.0007 	-6.75377e-06 	3.90705e-07 30.0007 	-6.75377e-06 	3.90705e-07 30.0004 	-1.18978e-07 	-7.09787e-07 30.0007 	-6.64331e-06 	5.64362e-07 30.0007 	-6.64331e-06 	5.64362e-07 30.0007 	-6.64331e-06 	5.64363e-07 30.0007 	-6.64331e-06 	5.64363e-07 30.0004 	-2.16711e-06 	-1.45452e-07 30.0007 	-6.53634e-06 	7.2739e-07 30.0007 	-6.53634e-06 	7.27391e-07 30.0007 	-6.53634e-06 	7.27391e-07 30.0007 	-6.53635e-06 	7.27391e-07 30.0004 	-2.08144e-06 	1.13824e-07 30.0007 	-6.43105e-06 	8.78829e-07 30.0007 	-6.43105e-06 	8.78829e-07 30.0007 	-6.43105e-06 	8.78829e-07 30.0007 	-6.43106e-06 	8.7883e-07 30.0004 	-1.23927e-07 	7.05623e-08 30.0007 	-6.32352e-06 	1.01779e-06 30.0007 	-6.32352e-06 	1.01779e-06 30.0007 	-6.32352e-06 	1.01779e-06 30.0007 	-6.32352e-06 	1.01779e-06 30.0004 	-1.25527e-07 	3.15794e-07 30.0007 	-6.21716e-06 	1.14062e-06 30.0007 	-6.21716e-06 	1.14062e-06 30.0007 	-6.21716e-06 	1.14062e-06 30.0007 	-6.21717e-06 	1.14062e-06 30.0004 	-1.27115e-07 	5.45515e-07 30.0007 	-6.1159e-06 	1.25633e-06 30.0007 	-6.1159e-06 	1.25633e-06 30.0007 	-6.1159e-06 	1.25633e-06 30.0007 	-6.11591e-06 	1.25633e-06 30.0004 	-1.76465e-06 	1.03207e-06 30.0007 	-6.02317e-06 	1.37128e-06 30.0007 	-6.02318e-06 	1.37128e-06 30.0007 	-6.02318e-06 	1.37128e-06 30.0007 	-6.02318e-06 	1.37128e-06 30.0004 	-1.30221e-07 	9.36935e-07 30.0007 	-5.94351e-06 	1.48851e-06 30.0007 	-5.94351e-06 	1.48851e-06 30.0007 	-5.94352e-06 	1.48851e-06 30.0007 	-5.94352e-06 	1.48851e-06 30.0004 	-1.31722e-07 	1.10456e-06 30.0007 	-5.87229e-06 	1.5929e-06 30.0007 	-5.87229e-06 	1.5929e-06 30.0007 	-5.8723e-06 	1.5929e-06 30.0007 	-5.8723e-06 	1.5929e-06 30.0004 	-1.59175e-06 	1.53876e-06 30.0007 	-5.80267e-06 	1.67932e-06 30.0007 	-5.80267e-06 	1.67933e-06 30.0007 	-5.80268e-06 	1.67933e-06 30.0007 	-5.80268e-06 	1.67933e-06 30.0003 	-1.54453e-06 	1.67821e-06 30.0007 	-5.73461e-06 	1.75012e-06 30.0007 	-5.73462e-06 	1.75012e-06 30.0007 	-5.73462e-06 	1.75012e-06 30.0007 	-5.73462e-06 	1.75013e-06 30.0003 	-1.36405e-07 	1.52473e-06 30.0006 	-5.66945e-06 	1.80983e-06 30.0006 	-5.66945e-06 	1.80983e-06 30.0006 	-5.66946e-06 	1.80983e-06 30.0006 	-5.66946e-06 	1.80983e-06 30.0003 	-1.37943e-07 	1.63227e-06 30.0006 	-5.60935e-06 	1.85996e-06 30.0006 	-5.60935e-06 	1.85996e-06 30.0006 	-5.60936e-06 	1.85996e-06 30.0006 	-5.60936e-06 	1.85996e-06 30.0003 	-1.39394e-07 	1.724e-06 30.0006 	-5.55502e-06 	1.90046e-06 30.0006 	-5.55503e-06 	1.90046e-06 30.0006 	-5.55503e-06 	1.90046e-06 30.0006 	-5.55503e-06 	1.90046e-06 30.0003 	-1.38914e-06 	2.07103e-06 30.0006 	-5.50615e-06 	1.93112e-06 30.0006 	-5.50616e-06 	1.93112e-06 30.0006 	-5.50616e-06 	1.93112e-06 30.0006 	-5.50617e-06 	1.93112e-06 30.0003 	-1.36209e-06 	2.13097e-06 30.0006 	-5.46238e-06 	1.95185e-06 30.0006 	-5.46238e-06 	1.95185e-06 30.0006 	-5.46239e-06 	1.95186e-06 30.0006 	-5.46239e-06 	1.95186e-06 30.0003 	-1.43355e-07 	1.90827e-06 30.0006 	-5.42353e-06 	1.9628e-06 30.0006 	-5.42354e-06 	1.9628e-06 30.0006 	-5.42354e-06 	1.9628e-06 30.0006 	-5.42355e-06 	1.96281e-06 30.0003 	-1.32365e-06 	2.20766e-06 30.0006 	-5.38953e-06 	1.96433e-06 30.0006 	-5.38954e-06 	1.96433e-06 30.0006 	-5.38954e-06 	1.96434e-06 30.0006 	-5.38955e-06 	1.96434e-06 30.0003 	-1.31185e-06 	2.22554e-06 30.0006 	-5.36031e-06 	1.95693e-06 30.0006 	-5.36031e-06 	1.95693e-06 30.0006 	-5.36031e-06 	1.95693e-06 30.0006 	-5.36032e-06 	1.95693e-06 30.0003 	-1.47139e-07 	1.96618e-06 30.0005 	-5.33575e-06 	1.94113e-06 30.0005 	-5.33575e-06 	1.94113e-06 30.0005 	-5.33575e-06 	1.94113e-06 30.0005 	-5.33576e-06 	1.94113e-06 30.0003 	-1.48353e-07 	1.96058e-06 30.0005 	-5.3157e-06 	1.91794e-06 30.0005 	-5.31571e-06 	1.91794e-06 30.0005 	-5.31571e-06 	1.91794e-06 30.0005 	-5.31572e-06 	1.91794e-06 30.0003 	-1.49545e-07 	1.94425e-06 30.0005 	-5.30007e-06 	1.888e-06 30.0005 	-5.30007e-06 	1.888e-06 30.0005 	-5.30007e-06 	1.888e-06 30.0005 	-5.30008e-06 	1.88801e-06 30.0003 	-1.3092e-06 	2.179e-06 30.0005 	-5.28868e-06 	1.8519e-06 30.0005 	-5.28868e-06 	1.8519e-06 30.0005 	-5.28868e-06 	1.8519e-06 30.0005 	-5.28869e-06 	1.8519e-06 30.0003 	-1.51846e-07 	1.8823e-06 30.0005 	-5.28134e-06 	1.81007e-06 30.0005 	-5.28135e-06 	1.81008e-06 30.0005 	-5.28135e-06 	1.81008e-06 30.0005 	-5.28136e-06 	1.81008e-06 30.0003 	-1.52943e-07 	1.83818e-06 30.0005 	-5.27786e-06 	1.76315e-06 30.0005 	-5.27786e-06 	1.76315e-06 30.0005 	-5.27787e-06 	1.76315e-06 30.0005 	-5.27787e-06 	1.76315e-06 30.0003 	-1.34836e-06 	2.04408e-06 30.0005 	-5.27799e-06 	1.71161e-06 30.0005 	-5.27799e-06 	1.71161e-06 30.0005 	-5.27799e-06 	1.71161e-06 30.0005 	-5.278e-06 	1.71161e-06 30.0003 	-1.3684e-06 	1.98424e-06 30.0005 	-5.28151e-06 	1.65598e-06 30.0005 	-5.28151e-06 	1.65598e-06 30.0005 	-5.28151e-06 	1.65598e-06 30.0005 	-5.28152e-06 	1.65598e-06 30.0002 	-1.56096e-07 	1.66281e-06 30.0005 	-5.28826e-06 	1.59666e-06 30.0005 	-5.28827e-06 	1.59666e-06 30.0005 	-5.28827e-06 	1.59666e-06 30.0005 	-5.28827e-06 	1.59666e-06 30.0002 	-1.57134e-07 	1.59256e-06 30.0004 	-5.29818e-06 	1.53414e-06 30.0004 	-5.29818e-06 	1.53414e-06 30.0004 	-5.29819e-06 	1.53414e-06 30.0004 	-5.29819e-06 	1.53414e-06 30.0002 	-1.58196e-07 	1.5177e-06 30.0004 	-5.31109e-06 	1.46887e-06 30.0004 	-5.31109e-06 	1.46887e-06 30.0004 	-5.3111e-06 	1.46887e-06 30.0004 	-5.3111e-06 	1.46888e-06 30.0002 	-1.48002e-06 	1.69063e-06 30.0004 	-5.3266e-06 	1.40142e-06 30.0004 	-5.3266e-06 	1.40142e-06 30.0004 	-5.3266e-06 	1.40142e-06 30.0004 	-5.32661e-06 	1.40142e-06 30.0002 	-1.51452e-06 	1.60714e-06 30.0004 	-5.34446e-06 	1.33217e-06 30.0004 	-5.34446e-06 	1.33217e-06 30.0004 	-5.34446e-06 	1.33217e-06 30.0004 	-5.34446e-06 	1.33217e-06 30.0002 	-1.61401e-07 	1.27187e-06 30.0004 	-5.36444e-06 	1.26146e-06 30.0004 	-5.36444e-06 	1.26146e-06 30.0004 	-5.36445e-06 	1.26146e-06 30.0004 	-5.36445e-06 	1.26146e-06 30.0002 	-1.58983e-06 	1.43251e-06 30.0004 	-5.38623e-06 	1.18978e-06 30.0004 	-5.38624e-06 	1.18978e-06 30.0004 	-5.38624e-06 	1.18978e-06 30.0004 	-5.38624e-06 	1.18979e-06 30.0002 	-1.63032e-06 	1.34243e-06 30.0004 	-5.40982e-06 	1.11745e-06 30.0004 	-5.40983e-06 	1.11745e-06 30.0004 	-5.40983e-06 	1.11745e-06 30.0004 	-5.40983e-06 	1.11745e-06 30.0002 	-1.64392e-07 	1.00609e-06 30.0004 	-5.43494e-06 	1.04478e-06 30.0004 	-5.43495e-06 	1.04478e-06 30.0004 	-5.43495e-06 	1.04478e-06 30.0004 	-5.43495e-06 	1.04478e-06 30.0002 	-1.65334e-07 	9.15622e-07 30.0004 	-5.46057e-06 	9.72244e-07 30.0004 	-5.46057e-06 	9.72245e-07 30.0004 	-5.46057e-06 	9.72245e-07 30.0004 	-5.46057e-06 	9.72245e-07 30.0002 	-1.66229e-07 	8.25e-07 30.0004 	-5.48658e-06 	8.99466e-07 30.0004 	-5.48658e-06 	8.99467e-07 30.0004 	-5.48658e-06 	8.99467e-07 30.0004 	-5.48658e-06 	8.99467e-07 30.0002 	-1.80718e-06 	9.75438e-07 30.0004 	-5.51333e-06 	8.25936e-07 30.0004 	-5.51333e-06 	8.25936e-07 30.0004 	-5.51333e-06 	8.25937e-07 30.0004 	-5.51334e-06 	8.25937e-07 30.0002 	-1.67912e-07 	6.43634e-07 30.0003 	-5.54306e-06 	7.51977e-07 30.0003 	-5.54306e-06 	7.51978e-07 30.0003 	-5.54306e-06 	7.51978e-07 30.0003 	-5.54306e-06 	7.51978e-07 30.0002 	-1.68739e-07 	5.52641e-07 30.0003 	-5.57752e-06 	6.77436e-07 30.0003 	-5.57752e-06 	6.77436e-07 30.0003 	-5.57752e-06 	6.77436e-07 30.0003 	-5.57752e-06 	6.77436e-07 30.0002 	-1.95552e-06 	7.01334e-07 30.0003 	-5.61435e-06 	6.04367e-07 30.0003 	-5.61435e-06 	6.04367e-07 30.0003 	-5.61435e-06 	6.04367e-07 30.0003 	-5.61435e-06 	6.04367e-07 30.0002 	-2.00771e-06 	6.11704e-07 30.0003 	-5.65045e-06 	5.34658e-07 30.0003 	-5.65046e-06 	5.34659e-07 30.0003 	-5.65046e-06 	5.34659e-07 30.0003 	-5.65046e-06 	5.34659e-07 30.0002 	-1.71214e-07 	2.80945e-07 30.0003 	-5.68155e-06 	4.67638e-07 30.0003 	-5.68155e-06 	4.67638e-07 30.0003 	-5.68156e-06 	4.67639e-07 30.0003 	-5.68156e-06 	4.67639e-07 30.0002 	-1.72039e-07 	1.97332e-07 30.0003 	-5.70996e-06 	4.03197e-07 30.0003 	-5.70996e-06 	4.03198e-07 30.0003 	-5.70996e-06 	4.03198e-07 30.0003 	-5.70996e-06 	4.03198e-07 30.0002 	-1.72829e-07 	1.16402e-07 30.0003 	-5.73811e-06 	3.39234e-07 30.0003 	-5.73811e-06 	3.39234e-07 30.0003 	-5.73811e-06 	3.39234e-07 30.0003 	-5.73811e-06 	3.39234e-07 30.0002 	-2.20095e-06 	2.74107e-07 30.0003 	-5.76606e-06 	2.75266e-07 30.0003 	-5.76606e-06 	2.75266e-07 30.0003 	-5.76606e-06 	2.75266e-07 30.0003 	-5.76606e-06 	2.75266e-07 30.0002 	-2.24788e-06 	1.96366e-07 30.0003 	-5.79285e-06 	2.10788e-07 30.0003 	-5.79285e-06 	2.10788e-07 30.0003 	-5.79285e-06 	2.10788e-07 30.0003 	-5.79285e-06 	2.10788e-07 30.0002 	-1.75002e-07 	-1.09139e-07 30.0003 	-5.82088e-06 	1.48789e-07 30.0003 	-5.82088e-06 	1.48789e-07 30.0003 	-5.82088e-06 	1.48789e-07 30.0003 	-5.82088e-06 	1.48789e-07 30.0002 	-2.34166e-06 	4.4686e-08 30.0003 	-5.85012e-06 	8.99939e-08 30.0003 	-5.85012e-06 	8.99939e-08 30.0003 	-5.85012e-06 	8.99939e-08 30.0003 	-5.85012e-06 	8.99939e-08 30.0002 	-2.38896e-06 	-2.90872e-08 30.0003 	-5.88053e-06 	3.48211e-08 30.0003 	-5.88053e-06 	3.48211e-08 30.0003 	-5.88053e-06 	3.48211e-08 30.0003 	-5.88053e-06 	3.48211e-08 30.0002 	-1.77006e-07 	-3.30761e-07 30.0003 	-5.91235e-06 	-1.70553e-08 30.0003 	-5.91235e-06 	-1.70553e-08 30.0003 	-5.91235e-06 	-1.70553e-08 30.0003 	-5.91235e-06 	-1.70553e-08 30.0002 	-1.77642e-07 	-4.01794e-07 30.0003 	-5.94545e-06 	-6.90315e-08 30.0003 	-5.94545e-06 	-6.90315e-08 30.0003 	-5.94545e-06 	-6.90315e-08 30.0003 	-5.94545e-06 	-6.90315e-08 30.0002 	-1.78237e-07 	-4.67066e-07 30.0003 	-5.97738e-06 	-1.23293e-07 30.0003 	-5.97738e-06 	-1.23293e-07 30.0003 	-5.97738e-06 	-1.23293e-07 30.0003 	-5.97738e-06 	-1.23293e-07 30.0002 	-2.58047e-06 	-3.01363e-07 30.0003 	-6.00513e-06 	-1.77936e-07 30.0003 	-6.00513e-06 	-1.77936e-07 30.0003 	-6.00513e-06 	-1.77936e-07 30.0003 	-6.00513e-06 	-1.77936e-07 30.0002 	-1.794e-07 	-5.84875e-07 30.0003 	-6.02926e-06 	-2.29192e-07 30.0003 	-6.02926e-06 	-2.29192e-07 30.0003 	-6.02926e-06 	-2.29192e-07 30.0003 	-6.02926e-06 	-2.29192e-07 30.0002 	-1.79998e-07 	-6.42135e-07 30.0003 	-6.05248e-06 	-2.76156e-07 30.0003 	-6.05248e-06 	-2.76156e-07 30.0003 	-6.05248e-06 	-2.76156e-07 30.0003 	-6.05248e-06 	-2.76156e-07 30.0002 	-2.7085e-06 	-4.78964e-07 30.0003 	-6.07631e-06 	-3.1964e-07 30.0003 	-6.07631e-06 	-3.19639e-07 30.0003 	-6.07631e-06 	-3.19639e-07 30.0003 	-6.0763e-06 	-3.19639e-07 30.0002 	-2.74953e-06 	-5.34008e-07 30.0003 	-6.10061e-06 	-3.61165e-07 30.0003 	-6.10061e-06 	-3.61165e-07 30.0003 	-6.10061e-06 	-3.61165e-07 30.0003 	-6.10061e-06 	-3.61165e-07 30.0002 	-1.81714e-07 	-8.03771e-07 30.0003 	-6.12463e-06 	-4.01362e-07 30.0003 	-6.12463e-06 	-4.01362e-07 30.0003 	-6.12463e-06 	-4.01362e-07 30.0003 	-6.12463e-06 	-4.01362e-07 30.0001 	-1.8225e-07 	-8.53089e-07 30.0003 	-6.14799e-06 	-4.40357e-07 30.0003 	-6.14799e-06 	-4.40357e-07 30.0003 	-6.14799e-06 	-4.40356e-07 30.0003 	-6.14799e-06 	-4.40356e-07 30.0001 	-1.82766e-07 	-9.00298e-07 30.0003 	-6.17061e-06 	-4.77982e-07 30.0003 	-6.17061e-06 	-4.77982e-07 30.0003 	-6.17061e-06 	-4.77982e-07 30.0003 	-6.17061e-06 	-4.77982e-07 30.0001 	-2.90899e-06 	-7.31439e-07 30.0003 	-6.19237e-06 	-5.14199e-07 30.0003 	-6.19237e-06 	-5.14199e-07 30.0003 	-6.19237e-06 	-5.14199e-07 30.0003 	-6.19237e-06 	-5.14199e-07 30.0001 	-2.94686e-06 	-7.75565e-07 30.0003 	-6.21334e-06 	-5.48818e-07 30.0003 	-6.21334e-06 	-5.48818e-07 30.0003 	-6.21334e-06 	-5.48818e-07 30.0003 	-6.21334e-06 	-5.48818e-07 30.0001 	-1.84264e-07 	-1.02951e-06 30.0003 	-6.23346e-06 	-5.82032e-07 30.0003 	-6.23346e-06 	-5.82032e-07 30.0003 	-6.23346e-06 	-5.82032e-07 30.0003 	-6.23346e-06 	-5.82032e-07 30.0001 	-3.01985e-06 	-8.57453e-07 30.0003 	-6.2527e-06 	-6.13878e-07 30.0003 	-6.2527e-06 	-6.13878e-07 30.0003 	-6.2527e-06 	-6.13878e-07 30.0003 	-6.2527e-06 	-6.13878e-07 30.0001 	-3.05494e-06 	-8.95461e-07 30.0003 	-6.27118e-06 	-6.44406e-07 30.0003 	-6.27118e-06 	-6.44406e-07 30.0003 	-6.27118e-06 	-6.44405e-07 30.0003 	-6.27118e-06 	-6.44405e-07 30.0001 	-1.85672e-07 	-1.14082e-06 30.0003 	-6.289e-06 	-6.73609e-07 30.0003 	-6.289e-06 	-6.73609e-07 30.0003 	-6.28899e-06 	-6.73609e-07 30.0003 	-6.28899e-06 	-6.73608e-07 30.0001 	-1.86133e-07 	-1.17457e-06 30.0003 	-6.30599e-06 	-7.01428e-07 30.0003 	-6.30599e-06 	-7.01428e-07 30.0003 	-6.30598e-06 	-7.01427e-07 30.0003 	-6.30598e-06 	-7.01427e-07 30.0001 	-1.86572e-07 	-1.20666e-06 30.0003 	-6.32204e-06 	-7.27863e-07 30.0003 	-6.32204e-06 	-7.27863e-07 30.0003 	-6.32204e-06 	-7.27863e-07 30.0003 	-6.32204e-06 	-7.27863e-07 30.0001 	-3.18638e-06 	-1.03098e-06 30.0003 	-6.33728e-06 	-7.52975e-07 30.0003 	-6.33728e-06 	-7.52975e-07 30.0003 	-6.33728e-06 	-7.52975e-07 30.0003 	-6.33728e-06 	-7.52975e-07 30.0001 	-1.87417e-07 	-1.26594e-06 30.0003 	-6.3518e-06 	-7.76945e-07 30.0003 	-6.35179e-06 	-7.76944e-07 30.0003 	-6.35179e-06 	-7.76944e-07 30.0003 	-6.35179e-06 	-7.76944e-07 30.0001 	-1.87832e-07 	-1.2933e-06 30.0003 	-6.36557e-06 	-7.99817e-07 30.0003 	-6.36557e-06 	-7.99817e-07 30.0003 	-6.36557e-06 	-7.99817e-07 30.0003 	-6.36557e-06 	-7.99817e-07 30.0001 	-3.27576e-06 	-1.11603e-06 30.0003 	-6.37862e-06 	-8.21549e-07 30.0003 	-6.37862e-06 	-8.21549e-07 30.0003 	-6.37862e-06 	-8.21549e-07 30.0003 	-6.37862e-06 	-8.21548e-07 30.0001 	-3.30387e-06 	-1.14151e-06 30.0003 	-6.39097e-06 	-8.41985e-07 30.0003 	-6.39097e-06 	-8.41985e-07 30.0003 	-6.39096e-06 	-8.41985e-07 30.0003 	-6.39096e-06 	-8.41985e-07 30.0001 	-1.89012e-07 	-1.36685e-06 30.0003 	-6.40259e-06 	-8.61383e-07 30.0003 	-6.40258e-06 	-8.61382e-07 30.0003 	-6.40258e-06 	-8.61382e-07 30.0003 	-6.40258e-06 	-8.61382e-07 30.0001 	-1.89392e-07 	-1.38872e-06 30.0003 	-6.4135e-06 	-8.79823e-07 30.0003 	-6.4135e-06 	-8.79823e-07 30.0003 	-6.41349e-06 	-8.79822e-07 30.0003 	-6.41349e-06 	-8.79822e-07 30.0001 	-1.89762e-07 	-1.40937e-06 30.0003 	-6.42372e-06 	-8.97312e-07 30.0003 	-6.42372e-06 	-8.97312e-07 30.0003 	-6.42371e-06 	-8.97312e-07 30.0003 	-6.42371e-06 	-8.97311e-07 30.0001 	-3.40818e-06 	-1.23051e-06 30.0003 	-6.43327e-06 	-9.13899e-07 30.0003 	-6.43326e-06 	-9.13899e-07 30.0003 	-6.43326e-06 	-9.13899e-07 30.0003 	-6.43326e-06 	-9.13899e-07 30.0001 	-3.43232e-06 	-1.24984e-06 30.0003 	-6.44222e-06 	-9.29586e-07 30.0003 	-6.44222e-06 	-9.29586e-07 30.0003 	-6.44222e-06 	-9.29585e-07 30.0003 	-6.44222e-06 	-9.29585e-07 30.0001 	-1.9087e-07 	-1.46454e-06 30.0003 	-6.45054e-06 	-9.44437e-07 30.0003 	-6.45054e-06 	-9.44437e-07 30.0003 	-6.45054e-06 	-9.44436e-07 30.0003 	-6.45053e-06 	-9.44436e-07 30.0001 	-3.47843e-06 	-1.28533e-06 30.0003 	-6.4582e-06 	-9.58446e-07 30.0003 	-6.4582e-06 	-9.58445e-07 30.0003 	-6.4582e-06 	-9.58445e-07 30.0003 	-6.4582e-06 	-9.58445e-07 30.0001 	-3.50049e-06 	-1.30159e-06 30.0003 	-6.46529e-06 	-9.71739e-07 30.0003 	-6.46528e-06 	-9.71739e-07 30.0003 	-6.46528e-06 	-9.71739e-07 30.0003 	