# vtk DataFile Version 2.0
track0
ASCII
DATASET POLYDATA
POINTS 15780 float
-1.001 -0.05 0.0011
-1.0008 -0.05 0.0011
-1.0006 -0.05 0.0011
-1.0004 -0.05 0.0011
-1.0002 -0.05 0.0011
-1 -0.05 0.0011
-0.9875 -0.05 0.0011
-0.975 -0.05 0.0011
-0.9625 -0.05 0.0011
-0.95 -0.05 0.0011
-0.9375 -0.05 0.00109999
-0.925 -0.05 0.00109999
-0.9125 -0.05 0.00109999
-0.9 -0.05 0.00109999
-0.8875 -0.05 0.00109999
-0.875 -0.05 0.00109999
-0.8625 -0.05 0.00109999
-0.85 -0.05 0.00109999
-0.8375 -0.05 0.00109998
-0.825 -0.0500001 0.00109998
-0.8125 -0.0500001 0.00109998
-0.8 -0.0500001 0.00109998
-0.7875 -0.0500001 0.00109998
-0.775 -0.0500001 0.00109998
-0.7625 -0.0500001 0.00109998
-0.75 -0.0500001 0.00109998
-0.7375 -0.0500001 0.00109997
-0.725 -0.0500001 0.00109997
-0.7125 -0.0500001 0.00109997
-0.7 -0.0500001 0.00109997
-0.6875 -0.0500001 0.00109997
-0.675 -0.0500001 0.00109997
-0.6625 -0.0500001 0.00109997
-0.65 -0.0500001 0.00109996
-0.6375 -0.0500001 0.00109996
-0.625 -0.0500001 0.00109996
-0.6125 -0.0500001 0.00109996
-0.6 -0.0500001 0.00109996
-0.5875 -0.0500001 0.00109996
-0.575 -0.0500001 0.00109996
-0.5625 -0.0500001 0.00109996
-0.55 -0.0500001 0.00109995
-0.5375 -0.0500001 0.00109995
-0.525 -0.0500001 0.00109995
-0.5125 -0.0500001 0.00109995
-0.5 -0.0500001 0.00109995
-0.4875 -0.0500001 0.00109995
-0.475 -0.0500001 0.00109995
-0.4625 -0.0500001 0.00109994
-0.45 -0.0500002 0.00109994
-0.4375 -0.0500002 0.00109994
-0.425 -0.0500002 0.00109994
-0.4125 -0.0500002 0.00109994
-0.4 -0.0500002 0.00109994
-0.3875 -0.0500002 0.00109994
-0.375 -0.0500002 0.00109994
-0.3625 -0.0500002 0.00109993
-0.35 -0.0500002 0.00109993
-0.3375 -0.0500002 0.00109993
-0.325 -0.0500002 0.00109993
-0.3125 -0.0500002 0.00109993
-0.3 -0.0500002 0.00109993
-0.2875 -0.0500002 0.00109993
-0.275 -0.0500002 0.00109993
-0.2625 -0.0500002 0.00109992
-0.25 -0.0500002 0.00109992
-0.2375 -0.0500002 0.00109992
-0.225 -0.0500002 0.00109992
-0.2125 -0.0500002 0.00109992
-0.2 -0.0500002 0.00109992
-0.1875 -0.0500002 0.00109992
-0.175 -0.0500002 0.00109992
-0.1625 -0.0500002 0.00109991
-0.15 -0.0500002 0.00109991
-0.1375 -0.0500002 0.00109991
-0.125 -0.0500002 0.00109991
-0.1125 -0.0500002 0.00109991
-0.1 -0.0500002 0.00109991
-0.0875 -0.0500002 0.00109991
-0.075 -0.0500002 0.00109991
-0.0625 -0.0500002 0.00109991
-0.05 -0.0500003 0.00109991
-0.0375 -0.0500003 0.0010999
-0.025 -0.0500003 0.0010999
-0.0125 -0.0500003 0.0010999
2.10607e-13 -0.0500003 0.0010999
0.0125 -0.0500003 0.0010999
0.025 -0.0500003 0.0010999
0.0375 -0.0500003 0.0010999
0.05 -0.0500003 0.0010999
0.0625 -0.0500003 0.0010999
0.075 -0.0500003 0.0010999
0.0875 -0.0500003 0.0010999
0.1 -0.0500003 0.00109989
0.1125 -0.0500003 0.00109989
0.125 -0.0500003 0.00109989
0.1375 -0.0500003 0.00109989
0.15 -0.0500003 0.00109989
0.1625 -0.0500003 0.00109989
0.175 -0.0500003 0.00109989
0.1875 -0.0500003 0.00109989
0.2 -0.0500003 0.00109989
0.2125 -0.0500003 0.00109989
0.225 -0.0500003 0.00109989
0.2375 -0.0500003 0.00109989
0.25 -0.0500003 0.00109989
0.2625 -0.0500003 0.00109988
0.275 -0.0500003 0.00109988
0.2875 -0.0500003 0.00109988
0.3 -0.0500003 0.00109988
0.3125 -0.0500003 0.00109988
0.325 -0.0500003 0.00109988
0.3375 -0.0500003 0.00109988
0.35 -0.0500003 0.00109988
0.3625 -0.0500003 0.00109988
0.375 -0.0500003 0.00109988
0.3875 -0.0500003 0.00109988
0.4 -0.0500004 0.00109988
0.4125 -0.0500004 0.00109988
0.425 -0.0500004 0.00109988
0.4375 -0.0500004 0.00109988
0.45 -0.0500004 0.00109988
0.4625 -0.0500004 0.00109988
0.475 -0.0500004 0.00109988
0.4875 -0.0500004 0.00109988
0.5 -0.0500004 0.00109988
0.5125 -0.0500004 0.00109988
0.525 -0.0500004 0.00109988
0.5375 -0.0500004 0.00109988
0.55 -0.0500004 0.00109988
0.5625 -0.0500004 0.00109988
0.575 -0.0500004 0.00109987
0.5875 -0.0500004 0.00109987
0.6 -0.0500004 0.00109987
0.6125 -0.0500004 0.00109987
0.625 -0.0500004 0.00109987
0.6375 -0.0500004 0.00109987
0.65 -0.0500004 0.00109987
0.6625 -0.0500004 0.00109987
0.675 -0.0500004 0.00109987
0.6875 -0.0500004 0.00109987
0.7 -0.0500004 0.00109987
0.7125 -0.0500004 0.00109987
0.725 -0.0500004 0.00109987
0.7375 -0.0500004 0.00109987
0.75 -0.0500004 0.00109987
0.7625 -0.0500004 0.00109987
0.775 -0.0500004 0.00109987
0.7875 -0.0500004 0.00109987
0.8 -0.0500004 0.00109987
0.8125 -0.0500004 0.00109987
0.825 -0.0500004 0.00109987
0.8375 -0.0500004 0.00109987
0.85 -0.0500004 0.00109987
0.8625 -0.0500004 0.00109987
0.875 -0.0500004 0.00109987
0.8875 -0.0500004 0.00109987
0.9 -0.0500004 0.00109987
0.9125 -0.0500005 0.00109988
0.925 -0.0500005 0.00109988
0.9375 -0.0500005 0.00109988
0.95 -0.0500005 0.00109988
0.9625 -0.0500005 0.00109988
0.975 -0.0500005 0.00109988
0.9875 -0.0500005 0.00109988
1 -0.0500005 0.00109988
1.0125 -0.0500005 0.00109988
1.025 -0.0500005 0.00109988
1.0375 -0.0500005 0.00109988
1.05 -0.0500005 0.00109988
1.0625 -0.0500005 0.00109988
1.075 -0.0500005 0.00109988
1.0875 -0.0500005 0.00109988
1.1 -0.0500005 0.00109988
1.1125 -0.0500005 0.00109988
1.125 -0.0500005 0.00109988
1.1375 -0.0500005 0.00109988
1.15 -0.0500005 0.00109988
1.1625 -0.0500005 0.00109988
1.175 -0.0500005 0.00109988
1.1875 -0.0500005 0.00109988
1.2 -0.0500005 0.00109988
1.2125 -0.0500005 0.00109988
1.225 -0.0500005 0.00109988
1.2375 -0.0500005 0.00109989
1.25 -0.0500005 0.00109989
1.2625 -0.0500005 0.00109989
1.275 -0.0500005 0.00109989
1.2875 -0.0500005 0.00109989
1.3 -0.0500005 0.00109989
1.3125 -0.0500005 0.00109989
1.325 -0.0500005 0.00109989
1.3375 -0.0500005 0.00109989
1.35 -0.0500005 0.00109989
1.3625 -0.0500005 0.00109989
1.375 -0.0500005 0.00109989
1.3875 -0.0500005 0.00109989
1.4 -0.0500005 0.00109989
1.4125 -0.0500005 0.00109989
1.425 -0.0500005 0.00109989
1.4375 -0.0500005 0.0010999
1.45 -0.0500005 0.0010999
1.4625 -0.0500005 0.0010999
1.475 -0.0500005 0.0010999
1.4875 -0.0500005 0.0010999
1.5 -0.0500006 0.0010999
1.5125 -0.0500006 0.0010999
1.525 -0.0500006 0.0010999
1.5375 -0.0500006 0.0010999
1.55 -0.0500006 0.0010999
1.5625 -0.0500006 0.0010999
1.575 -0.0500006 0.0010999
1.5875 -0.0500006 0.0010999
1.6 -0.0500006 0.0010999
1.6125 -0.0500006 0.00109991
1.625 -0.0500006 0.00109991
1.6375 -0.0500006 0.00109991
1.65 -0.0500006 0.00109991
1.6625 -0.0500006 0.00109991
1.675 -0.0500006 0.00109991
1.6875 -0.0500006 0.00109991
1.7 -0.0500006 0.00109991
1.7125 -0.0500006 0.00109991
1.725 -0.0500006 0.00109991
1.7375 -0.0500006 0.00109991
1.75 -0.0500006 0.00109991
1.7625 -0.0500006 0.00109992
1.775 -0.0500006 0.00109992
1.7875 -0.0500006 0.00109992
1.8 -0.0500006 0.00109992
1.8125 -0.0500006 0.00109992
1.825 -0.0500006 0.00109992
1.8375 -0.0500006 0.00109992
1.85 -0.0500006 0.00109992
1.8625 -0.0500006 0.00109992
1.875 -0.0500006 0.00109992
1.8875 -0.0500006 0.00109992
1.9 -0.0500006 0.00109992
1.9125 -0.0500006 0.00109993
1.925 -0.0500006 0.00109993
1.9375 -0.0500006 0.00109993
1.95 -0.0500006 0.00109993
1.9625 -0.0500006 0.00109993
1.975 -0.0500006 0.00109993
1.9875 -0.0500006 0.00109993
2 -0.0500006 0.00109993
2.0125 -0.0500006 0.00109993
2.025 -0.0500006 0.00109993
2.0375 -0.0500006 0.00109993
2.05 -0.0500006 0.00109993
2.0625 -0.0500006 0.00109994
2.075 -0.0500006 0.00109994
2.0875 -0.0500006 0.00109994
2.1 -0.0500006 0.00109994
2.1125 -0.0500006 0.00109994
2.125 -0.0500006 0.00109994
2.1375 -0.0500006 0.00109994
2.15 -0.0500006 0.00109994
2.1625 -0.0500006 0.00109994
2.175 -0.0500007 0.00109994
2.1875 -0.0500007 0.00109994
2.2 -0.0500007 0.00109994
2.2125 -0.0500007 0.00109994
2.225 -0.0500007 0.00109995
2.2375 -0.0500007 0.00109995
2.25 -0.0500007 0.00109995
2.2625 -0.0500007 0.00109995
2.275 -0.0500007 0.00109995
2.2875 -0.0500007 0.00109995
2.3 -0.0500007 0.00109995
2.3125 -0.0500007 0.00109995
2.325 -0.0500007 0.00109995
2.3375 -0.0500007 0.00109995
2.35 -0.0500007 0.00109995
2.3625 -0.0500007 0.00109995
2.375 -0.0500007 0.00109995
2.3875 -0.0500007 0.00109996
2.4 -0.0500007 0.00109996
2.4125 -0.0500007 0.00109996
2.425 -0.0500007 0.00109996
2.4375 -0.0500007 0.00109996
2.45 -0.0500007 0.00109996
2.4625 -0.0500007 0.00109996
2.475 -0.0500007 0.00109996
2.4875 -0.0500007 0.00109996
2.5 -0.0500007 0.00109996
2.5125 -0.0500007 0.00109996
2.525 -0.0500007 0.00109996
2.5375 -0.0500007 0.00109996
2.55 -0.0500007 0.00109996
2.5625 -0.0500007 0.00109997
2.575 -0.0500007 0.00109997
2.5875 -0.0500007 0.00109997
2.6 -0.0500007 0.00109997
2.6125 -0.0500007 0.00109997
2.625 -0.0500007 0.00109997
2.6375 -0.0500007 0.00109997
2.65 -0.0500007 0.00109997
2.6625 -0.0500007 0.00109997
2.675 -0.0500007 0.00109997
2.6875 -0.0500007 0.00109997
2.7 -0.0500007 0.00109997
2.7125 -0.0500007 0.00109997
2.725 -0.0500007 0.00109997
2.7375 -0.0500007 0.00109997
2.75 -0.0500007 0.00109997
2.7625 -0.0500007 0.00109998
2.775 -0.0500007 0.00109998
2.7875 -0.0500007 0.00109998
2.8 -0.0500007 0.00109998
2.8125 -0.0500007 0.00109998
2.825 -0.0500007 0.00109998
2.8375 -0.0500007 0.00109998
2.85 -0.0500007 0.00109998
2.8625 -0.0500008 0.00109998
2.875 -0.0500008 0.00109998
2.8875 -0.0500008 0.00109998
2.9 -0.0500008 0.00109998
2.9125 -0.0500008 0.00109998
2.925 -0.0500008 0.00109998
2.9375 -0.0500008 0.00109998
2.95 -0.0500008 0.00109998
2.9625 -0.0500008 0.00109998
2.975 -0.0500008 0.00109998
2.9875 -0.0500008 0.00109998
3 -0.0500008 0.00109998
3.0125 -0.0500008 0.00109999
3.025 -0.0500008 0.00109999
3.0375 -0.0500008 0.00109999
3.05 -0.0500008 0.00109999
3.0625 -0.0500008 0.00109999
3.075 -0.0500008 0.00109999
3.0875 -0.0500008 0.00109999
3.1 -0.0500008 0.00109999
3.1125 -0.0500008 0.00109999
3.125 -0.0500008 0.00109999
3.1375 -0.0500008 0.00109999
3.15 -0.0500008 0.00109999
3.1625 -0.0500008 0.00109999
3.175 -0.0500008 0.00109999
3.1875 -0.0500008 0.00109999
3.2 -0.0500008 0.00109999
3.2125 -0.0500008 0.00109999
3.225 -0.0500008 0.00109999
3.2375 -0.0500008 0.00109999
3.25 -0.0500008 0.00109999
3.2625 -0.0500008 0.00109999
3.275 -0.0500008 0.00109999
3.2875 -0.0500008 0.00109999
3.3 -0.0500008 0.00109999
3.3125 -0.0500008 0.00109999
3.325 -0.0500008 0.00109999
3.3375 -0.0500008 0.00109999
3.35 -0.0500008 0.0011
3.3625 -0.0500008 0.0011
[...]
POINT_DATA 15780
 FIELD attributes 1
U 3 15780 float
30.0002 	-7.01789e-06 	-6.30588e-06 30.0002 	-6.84341e-06 	-6.51455e-06 30.0002 	-6.66892e-06 	-6.72322e-06 30.0002 	-6.49444e-06 	-6.93189e-06 30.0002 	-6.31995e-06 	-7.14055e-06 30.0002 	-6.14547e-06 	-7.34922e-06 30.0004 	-1.23852e-05 	-1.26098e-06 30.0004 	-1.23852e-05 	-1.26098e-06 30.0004 	-1.23852e-05 	-1.26098e-06 30.0004 	-1.23852e-05 	-1.26098e-06 30.0002 	-7.05369e-08 	-6.84368e-06 30.0005 	-1.07091e-05 	-1.68702e-06 30.0005 	-1.07091e-05 	-1.68702e-06 30.0005 	-1.07091e-05 	-1.68702e-06 30.0005 	-1.07091e-05 	-1.68702e-06 30.0002 	-7.22309e-08 	-6.59609e-06 30.0005 	-9.95857e-06 	-2.0802e-06 30.0005 	-9.95856e-06 	-2.0802e-06 30.0005 	-9.95856e-06 	-2.0802e-06 30.0005 	-9.95855e-06 	-2.0802e-06 30.0003 	-4.59315e-06 	-6.24727e-06 30.0005 	-9.69183e-06 	-2.34893e-06 30.0005 	-9.69182e-06 	-2.34893e-06 30.0005 	-9.69181e-06 	-2.34892e-06 30.0005 	-9.6918e-06 	-2.34892e-06 30.0003 	-7.58588e-08 	-6.57616e-06 30.0005 	-9.52369e-06 	-2.49779e-06 30.0005 	-9.52368e-06 	-2.49779e-06 30.0005 	-9.52367e-06 	-2.49779e-06 30.0005 	-9.52366e-06 	-2.49779e-06 30.0003 	-7.76342e-08 	-6.52627e-06 30.0005 	-9.38735e-06 	-2.55604e-06 30.0005 	-9.38734e-06 	-2.55604e-06 30.0005 	-9.38733e-06 	-2.55603e-06 30.0005 	-9.38732e-06 	-2.55603e-06 30.0003 	-4.26702e-06 	-6.08529e-06 30.0005 	-9.27994e-06 	-2.55827e-06 30.0005 	-9.27993e-06 	-2.55827e-06 30.0005 	-9.27992e-06 	-2.55827e-06 30.0005 	-9.27992e-06 	-2.55826e-06 30.0003 	-4.19944e-06 	-5.97789e-06 30.0006 	-9.1878e-06 	-2.53041e-06 30.0006 	-9.18779e-06 	-2.5304e-06 30.0006 	-9.18778e-06 	-2.5304e-06 30.0006 	-9.18777e-06 	-2.5304e-06 30.0003 	-8.2981e-08 	-6.20127e-06 30.0006 	-9.09775e-06 	-2.48116e-06 30.0006 	-9.09774e-06 	-2.48116e-06 30.0006 	-9.09774e-06 	-2.48116e-06 30.0006 	-9.09773e-06 	-2.48115e-06 30.0003 	-8.47406e-08 	-6.05424e-06 30.0006 	-9.0053e-06 	-2.41359e-06 30.0006 	-9.0053e-06 	-2.41359e-06 30.0006 	-9.00529e-06 	-2.41359e-06 30.0006 	-9.00528e-06 	-2.41358e-06 30.0003 	-8.64975e-08 	-5.88782e-06 30.0006 	-8.90917e-06 	-2.32971e-06 30.0006 	-8.90916e-06 	-2.32971e-06 30.0006 	-8.90915e-06 	-2.32971e-06 30.0006 	-8.90915e-06 	-2.3297e-06 30.0003 	-3.93807e-06 	-5.36347e-06 30.0006 	-8.80914e-06 	-2.23273e-06 30.0006 	-8.80913e-06 	-2.23273e-06 30.0006 	-8.80912e-06 	-2.23272e-06 30.0006 	-8.80911e-06 	-2.23272e-06 30.0003 	-3.86429e-06 	-5.16476e-06 30.0006 	-8.70488e-06 	-2.12412e-06 30.0006 	-8.70488e-06 	-2.12412e-06 30.0006 	-8.70487e-06 	-2.12412e-06 30.0006 	-8.70486e-06 	-2.12411e-06 30.0003 	-9.1775e-08 	-5.28457e-06 30.0006 	-8.59669e-06 	-2.00506e-06 30.0006 	-8.59668e-06 	-2.00506e-06 30.0006 	-8.59667e-06 	-2.00506e-06 30.0006 	-8.59667e-06 	-2.00506e-06 30.0003 	-3.70468e-06 	-4.71939e-06 30.0007 	-8.48532e-06 	-1.87667e-06 30.0007 	-8.48531e-06 	-1.87667e-06 30.0007 	-8.48531e-06 	-1.87666e-06 30.0007 	-8.4853e-06 	-1.87666e-06 30.0003 	-3.61958e-06 	-4.4743e-06 30.0007 	-8.37198e-06 	-1.73882e-06 30.0007 	-8.37197e-06 	-1.73882e-06 30.0007 	-8.37197e-06 	-1.73882e-06 30.0007 	-8.37196e-06 	-1.73882e-06 30.0004 	-9.6994e-08 	-4.54318e-06 30.0007 	-8.26039e-06 	-1.59802e-06 30.0007 	-8.26039e-06 	-1.59802e-06 30.0007 	-8.26038e-06 	-1.59802e-06 30.0007 	-8.26038e-06 	-1.59802e-06 30.0004 	-9.87202e-08 	-4.27123e-06 30.0007 	-8.14838e-06 	-1.46322e-06 30.0007 	-8.14837e-06 	-1.46322e-06 30.0007 	-8.14837e-06 	-1.46322e-06 30.0007 	-8.14836e-06 	-1.46322e-06 30.0004 	-1.00438e-07 	-3.98926e-06 30.0007 	-8.02028e-06 	-1.32071e-06 30.0007 	-8.02028e-06 	-1.32071e-06 30.0007 	-8.02028e-06 	-1.32071e-06 30.0007 	-8.02027e-06 	-1.32071e-06 30.0004 	-3.25117e-06 	-3.37795e-06 30.0007 	-7.88147e-06 	-1.16799e-06 30.0007 	-7.88147e-06 	-1.16799e-06 30.0007 	-7.88147e-06 	-1.16799e-06 30.0007 	-7.88146e-06 	-1.16799e-06 30.0004 	-1.0384e-07 	-3.40287e-06 30.0007 	-7.74554e-06 	-1.00786e-06 30.0007 	-7.74554e-06 	-1.00786e-06 30.0007 	-7.74553e-06 	-1.00786e-06 30.0007 	-7.74553e-06 	-1.00786e-06 30.0004 	-1.05539e-07 	-3.10326e-06 30.0007 	-7.61139e-06 	-8.41851e-07 30.0007 	-7.61139e-06 	-8.41851e-07 30.0007 	-7.61139e-06 	-8.41851e-07 30.0007 	-7.61138e-06 	-8.4185e-07 30.0004 	-2.93198e-06 	-2.48788e-06 30.0007 	-7.47561e-06 	-6.70199e-07 30.0007 	-7.47561e-06 	-6.70199e-07 30.0007 	-7.47561e-06 	-6.70198e-07 30.0007 	-7.4756e-06 	-6.70198e-07 30.0004 	-2.8255e-06 	-2.18312e-06 30.0007 	-7.34345e-06 	-4.97044e-07 30.0007 	-7.34345e-06 	-4.97043e-07 30.0007 	-7.34345e-06 	-4.97043e-07 30.0007 	-7.34345e-06 	-4.97043e-07 30.0004 	-1.10592e-07 	-2.17109e-06 30.0007 	-7.21564e-06 	-3.17318e-07 30.0007 	-7.21563e-06 	-3.17318e-07 30.0007 	-7.21563e-06 	-3.17318e-07 30.0007 	-7.21563e-06 	-3.17318e-07 30.0004 	-1.12256e-07 	-1.85335e-06 30.0007 	-7.09887e-06 	-1.38213e-07 30.0007 	-7.09887e-06 	-1.38213e-07 30.0007 	-7.09887e-06 	-1.38213e-07 30.0007 	-7.09887e-06 	-1.38213e-07 30.0004 	-1.13905e-07 	-1.54901e-06 30.0007 	-6.98554e-06 	4.08488e-08 30.0007 	-6.98554e-06 	4.08488e-08 30.0007 	-6.98554e-06 	4.08488e-08 30.0007 	-6.98554e-06 	4.08488e-08 30.0004 	-2.43901e-06 	-9.58501e-07 30.0007 	-6.87194e-06 	2.14669e-07 30.0007 	-6.87194e-06 	2.14669e-07 30.0007 	-6.87194e-06 	2.14669e-07 30.0007 	-6.87194e-06 	2.14669e-07 30.0004 	-2.3474e-06 	-6.823e-07 30.0007 	-6.75376e-06 	3.90719e-07 30.0007 	-6.75376e-06 	3.90719e-07 30.0007 	-6.75376e-06 	3.90719e-07 30.0007 	-6.75376e-06 	3.90719e-07 30.0004 	-1.1884e-07 	-7.09761e-07 30.0007 	-6.64323e-06 	5.64367e-07 30.0007 	-6.64323e-06 	5.64367e-07 30.0007 	-6.64323e-06 	5.64367e-07 30.0007 	-6.64323e-06 	5.64368e-07 30.0004 	-2.16704e-06 	-1.45442e-07 30.0007 	-6.53624e-06 	7.27391e-07 30.0007 	-6.53625e-06 	7.27391e-07 30.0007 	-6.53625e-06 	7.27392e-07 30.0007 	-6.53625e-06 	7.27392e-07 30.0004 	-2.08137e-06 	1.13838e-07 30.0007 	-6.43094e-06 	8.78836e-07 30.0007 	-6.43095e-06 	8.78837e-07 30.0007 	-6.43095e-06 	8.78837e-07 30.0007 	-6.43095e-06 	8.78837e-07 30.0004 	-1.23747e-07 	7.05896e-08 30.0007 	-6.32337e-06 	1.01778e-06 30.0007 	-6.32337e-06 	1.01778e-06 30.0007 	-6.32337e-06 	1.01778e-06 30.0007 	-6.32338e-06 	1.01779e-06 30.0004 	-1.25339e-07 	3.15819e-07 30.0007 	-6.21699e-06 	1.14061e-06 30.0007 	-6.217e-06 	1.14061e-06 30.0007 	-6.217e-06 	1.14061e-06 30.0007 	-6.217e-06 	1.14061e-06 30.0004 	-1.26923e-07 	5.45535e-07 30.0007 	-6.11572e-06 	1.25631e-06 30.0007 	-6.11573e-06 	1.25631e-06 30.0007 	-6.11573e-06 	1.25631e-06 30.0007 	-6.11573e-06 	1.25631e-06 30.0004 	-1.76456e-06 	1.03208e-06 30.0007 	-6.023e-06 	1.37127e-06 30.0007 	-6.02301e-06 	1.37127e-06 30.0007 	-6.02301e-06 	1.37127e-06 30.0007 	-6.02301e-06 	1.37127e-06 30.0004 	-1.30025e-07 	9.36954e-07 30.0007 	-5.94336e-06 	1.4885e-06 30.0007 	-5.94336e-06 	1.4885e-06 30.0007 	-5.94336e-06 	1.4885e-06 30.0007 	-5.94337e-06 	1.4885e-06 30.0004 	-1.31531e-07 	1.10457e-06 30.0007 	-5.87215e-06 	1.59288e-06 30.0007 	-5.87215e-06 	1.59289e-06 30.0007 	-5.87215e-06 	1.59289e-06 30.0007 	-5.87216e-06 	1.59289e-06 30.0004 	-1.5917e-06 	1.53877e-06 30.0007 	-5.80255e-06 	1.67931e-06 30.0007 	-5.80255e-06 	1.67931e-06 30.0007 	-5.80256e-06 	1.67931e-06 30.0007 	-5.80256e-06 	1.67931e-06 30.0003 	-1.54449e-06 	1.67822e-06 30.0007 	-5.73448e-06 	1.75011e-06 30.0007 	-5.73448e-06 	1.75011e-06 30.0007 	-5.73448e-06 	1.75011e-06 30.0007 	-5.73449e-06 	1.75011e-06 30.0003 	-1.36251e-07 	1.52475e-06 30.0006 	-5.66934e-06 	1.80981e-06 30.0006 	-5.66935e-06 	1.80981e-06 30.0006 	-5.66935e-06 	1.80981e-06 30.0006 	-5.66936e-06 	1.80981e-06 30.0003 	-1.37812e-07 	1.63229e-06 30.0006 	-5.60927e-06 	1.85994e-06 30.0006 	-5.60927e-06 	1.85994e-06 30.0006 	-5.60928e-06 	1.85994e-06 30.0006 	-5.60928e-06 	1.85994e-06 30.0003 	-1.39288e-07 	1.72401e-06 30.0006 	-5.55499e-06 	1.90043e-06 30.0006 	-5.555e-06 	1.90043e-06 30.0006 	-5.555e-06 	1.90043e-06 30.0006 	-5.55501e-06 	1.90043e-06 30.0003 	-1.38921e-06 	2.07104e-06 30.0006 	-5.50618e-06 	1.93109e-06 30.0006 	-5.50619e-06 	1.9311e-06 30.0006 	-5.50619e-06 	1.9311e-06 30.0006 	-5.5062e-06 	1.9311e-06 30.0003 	-1.36219e-06 	2.13098e-06 30.0006 	-5.46247e-06 	1.95183e-06 30.0006 	-5.46247e-06 	1.95183e-06 30.0006 	-5.46248e-06 	1.95184e-06 30.0006 	-5.46248e-06 	1.95184e-06 30.0003 	-1.43358e-07 	1.90828e-06 30.0006 	-5.42369e-06 	1.96278e-06 30.0006 	-5.4237e-06 	1.96278e-06 30.0006 	-5.4237e-06 	1.96278e-06 30.0006 	-5.42371e-06 	1.96278e-06 30.0003 	-1.32382e-06 	2.20767e-06 30.0006 	-5.38975e-06 	1.96431e-06 30.0006 	-5.38976e-06 	1.96431e-06 30.0006 	-5.38976e-06 	1.96431e-06 30.0006 	-5.38977e-06 	1.96431e-06 30.0003 	-1.31206e-06 	2.22556e-06 30.0006 	-5.36061e-06 	1.95692e-06 30.0006 	-5.36061e-06 	1.95692e-06 30.0006 	-5.36062e-06 	1.95692e-06 30.0006 	-5.36062e-06 	1.95692e-06 30.0003 	-1.4728e-07 	1.96619e-06 30.0005 	-5.33618e-06 	1.94112e-06 30.0005 	-5.33618e-06 	1.94112e-06 30.0005 	-5.33619e-06 	1.94112e-06 30.0005 	-5.33619e-06 	1.94113e-06 30.0003 	-1.48556e-07 	1.96059e-06 30.0005 	-5.31619e-06 	1.91793e-06 30.0005 	-5.3162e-06 	1.91793e-06 30.0005 	-5.3162e-06 	1.91794e-06 30.0005 	-5.31621e-06 	1.91794e-06 30.0003 	-1.49776e-07 	1.94426e-06 30.0005 	-5.30061e-06 	1.888e-06 30.0005 	-5.30062e-06 	1.888e-06 30.0005 	-5.30062e-06 	1.888e-06 30.0005 	-5.30062e-06 	1.888e-06 30.0003 	-1.30954e-06 	2.17902e-06 30.0005 	-5.28929e-06 	1.85191e-06 30.0005 	-5.2893e-06 	1.85191e-06 30.0005 	-5.2893e-06 	1.85191e-06 30.0005 	-5.2893e-06 	1.85191e-06 30.0003 	-1.5214e-07 	1.88232e-06 30.0005 	-5.28205e-06 	1.81009e-06 30.0005 	-5.28205e-06 	1.81009e-06 30.0005 	-5.28205e-06 	1.81009e-06 30.0005 	-5.28206e-06 	1.81009e-06 30.0003 	-1.53271e-07 	1.8382e-06 30.0005 	-5.27861e-06 	1.76317e-06 30.0005 	-5.27861e-06 	1.76317e-06 30.0005 	-5.27862e-06 	1.76317e-06 30.0005 	-5.27862e-06 	1.76318e-06 30.0003 	-1.34878e-06 	2.0441e-06 30.0005 	-5.2788e-06 	1.71163e-06 30.0005 	-5.27881e-06 	1.71164e-06 30.0005 	-5.27881e-06 	1.71164e-06 30.0005 	-5.27881e-06 	1.71164e-06 30.0003 	-1.36886e-06 	1.98426e-06 30.0005 	-5.28238e-06 	1.65601e-06 30.0005 	-5.28238e-06 	1.65601e-06 30.0005 	-5.28238e-06 	1.65601e-06 30.0005 	-5.28239e-06 	1.65601e-06 30.0002 	-1.56504e-07 	1.66284e-06 30.0005 	-5.28918e-06 	1.5967e-06 30.0005 	-5.28918e-06 	1.5967e-06 30.0005 	-5.28918e-06 	1.5967e-06 30.0005 	-5.28919e-06 	1.5967e-06 30.0002 	-1.5756e-07 	1.59259e-06 30.0004 	-5.29912e-06 	1.53417e-06 30.0004 	-5.29913e-06 	1.53417e-06 30.0004 	-5.29913e-06 	1.53418e-06 30.0004 	-5.29913e-06 	1.53418e-06 30.0002 	-1.58637e-07 	1.51772e-06 30.0004 	-5.31208e-06 	1.46891e-06 30.0004 	-5.31208e-06 	1.46891e-06 30.0004 	-5.31209e-06 	1.46891e-06 30.0004 	-5.31209e-06 	1.46891e-06 30.0002 	-1.48054e-06 	1.69065e-06 30.0004 	-5.32765e-06 	1.40146e-06 30.0004 	-5.32765e-06 	1.40146e-06 30.0004 	-5.32765e-06 	1.40146e-06 30.0004 	-5.32765e-06 	1.40146e-06 30.0002 	-1.51507e-06 	1.60716e-06 30.0004 	-5.34556e-06 	1.33222e-06 30.0004 	-5.34556e-06 	1.33222e-06 30.0004 	-5.34557e-06 	1.33222e-06 30.0004 	-5.34557e-06 	1.33222e-06 30.0002 	-1.61909e-07 	1.2719e-06 30.0004 	-5.36558e-06 	1.2615e-06 30.0004 	-5.36558e-06 	1.2615e-06 30.0004 	-5.36558e-06 	1.2615e-06 30.0004 	-5.36559e-06 	1.2615e-06 30.0002 	-1.59041e-06 	1.43252e-06 30.0004 	-5.38742e-06 	1.18983e-06 30.0004 	-5.38742e-06 	1.18983e-06 30.0004 	-5.38742e-06 	1.18983e-06 30.0004 	-5.38742e-06 	1.18983e-06 30.0002 	-1.6309e-06 	1.34244e-06 30.0004 	-5.41107e-06 	1.11751e-06 30.0004 	-5.41107e-06 	1.11751e-06 30.0004 	-5.41107e-06 	1.11751e-06 30.0004 	-5.41108e-06 	1.11751e-06 30.0002 	-1.64944e-07 	1.00612e-06 30.0004 	-5.4362e-06 	1.04483e-06 30.0004 	-5.4362e-06 	1.04483e-06 30.0004 	-5.4362e-06 	1.04483e-06 30.0004 	-5.43621e-06 	1.04483e-06 30.0002 	-1.65893e-07 	9.15646e-07 30.0004 	-5.46187e-06 	9.72293e-07 30.0004 	-5.46187e-06 	9.72293e-07 30.0004 	-5.46187e-06 	9.72293e-07 30.0004 	-5.46187e-06 	9.72294e-07 30.0002 	-1.66799e-07 	8.25023e-07 30.0004 	-5.48794e-06 	8.99508e-07 30.0004 	-5.48794e-06 	8.99508e-07 30.0004 	-5.48794e-06 	8.99509e-07 30.0004 	-5.48794e-06 	8.99509e-07 30.0002 	-1.80782e-06 	9.7544e-07 30.0004 	-5.51475e-06 	8.25979e-07 30.0004 	-5.51475e-06 	8.25979e-07 30.0004 	-5.51475e-06 	8.2598e-07 30.0004 	-5.51475e-06 	8.2598e-07 30.0002 	-1.68516e-07 	6.43658e-07 30.0003 	-5.54452e-06 	7.5202e-07 30.0003 	-5.54452e-06 	7.5202e-07 30.0003 	-5.54452e-06 	7.52021e-07 30.0003 	-5.54452e-06 	7.52021e-07 30.0002 	-1.69339e-07 	5.52662e-07 30.0003 	-5.579e-06 	6.77474e-07 30.0003 	-5.579e-06 	6.77475e-07 30.0003 	-5.579e-06 	6.77475e-07 30.0003 	-5.579e-06 	6.77475e-07 30.0002 	-1.9562e-06 	7.0133e-07 30.0003 	-5.61587e-06 	6.04408e-07 30.0003 	-5.61587e-06 	6.04408e-07 30.0003 	-5.61587e-06 	6.04409e-07 30.0003 	-5.61587e-06 	6.04409e-07 30.0002 	-2.00839e-06 	6.11702e-07 30.0003 	-5.65193e-06 	5.34694e-07 30.0003 	-5.65193e-06 	5.34694e-07 30.0003 	-5.65194e-06 	5.34694e-07 30.0003 	-5.65194e-06 	5.34694e-07 30.0002 	-1.71824e-07 	2.8097e-07 30.0003 	-5.68304e-06 	4.6767e-07 30.0003 	-5.68304e-06 	4.6767e-07 30.0003 	-5.68304e-06 	4.6767e-07 30.0003 	-5.68304e-06 	4.6767e-07 30.0002 	-1.72646e-07 	1.97355e-07 30.0003 	-5.71144e-06 	4.03225e-07 30.0003 	-5.71144e-06 	4.03225e-07 30.0003 	-5.71145e-06 	4.03225e-07 30.0003 	-5.71145e-06 	4.03225e-07 30.0002 	-1.7344e-07 	1.16422e-07 30.0003 	-5.73961e-06 	3.39256e-07 30.0003 	-5.73962e-06 	3.39256e-07 30.0003 	-5.73962e-06 	3.39256e-07 30.0003 	-5.73962e-06 	3.39256e-07 30.0002 	-2.20164e-06 	2.74099e-07 30.0003 	-5.7676e-06 	2.75296e-07 30.0003 	-5.7676e-06 	2.75296e-07 30.0003 	-5.7676e-06 	2.75296e-07 30.0003 	-5.7676e-06 	2.75296e-07 30.0002 	-2.24856e-06 	1.96356e-07 30.0003 	-5.79433e-06 	2.10807e-07 30.0003 	-5.79433e-06 	2.10807e-07 30.0003 	-5.79433e-06 	2.10807e-07 30.0003 	-5.79433e-06 	2.10807e-07 30.0002 	-1.75596e-07 	-1.09128e-07 30.0003 	-5.8223e-06 	1.48793e-07 30.0003 	-5.8223e-06 	1.48793e-07 30.0003 	-5.8223e-06 	1.48793e-07 30.0003 	-5.8223e-06 	1.48793e-07 30.0002 	-2.34232e-06 	4.46627e-08 30.0003 	-5.85156e-06 	8.99929e-08 30.0003 	-5.85156e-06 	8.9993e-08 30.0003 	-5.85156e-06 	8.9993e-08 30.0003 	-5.85156e-06 	8.9993e-08 30.0002 	-2.38962e-06 	-2.91094e-08 30.0003 	-5.88199e-06 	3.48301e-08 30.0003 	-5.88199e-06 	3.48301e-08 30.0003 	-5.88199e-06 	3.48301e-08 30.0003 	-5.88199e-06 	3.48301e-08 30.0002 	-1.77577e-07 	-3.30758e-07 30.0003 	-5.91368e-06 	-1.70606e-08 30.0003 	-5.91368e-06 	-1.70606e-08 30.0003 	-5.91368e-06 	-1.70606e-08 30.0003 	-5.91368e-06 	-1.70606e-08 30.0002 	-1.78193e-07 	-4.01795e-07 30.0003 	-5.9468e-06 	-6.90437e-08 30.0003 	-5.9468e-06 	-6.90437e-08 30.0003 	-5.9468e-06 	-6.90437e-08 30.0003 	-5.9468e-06 	-6.90437e-08 30.0002 	-1.78797e-07 	-4.67068e-07 30.0003 	-5.97877e-06 	-1.23313e-07 30.0003 	-5.97877e-06 	-1.23313e-07 30.0003 	-5.97877e-06 	-1.23313e-07 30.0003 	-5.97877e-06 	-1.23313e-07 30.0002 	-2.58112e-06 	-3.01389e-07 30.0003 	-6.00655e-06 	-1.77954e-07 30.0003 	-6.00655e-06 	-1.77954e-07 30.0003 	-6.00655e-06 	-1.77954e-07 30.0003 	-6.00655e-06 	-1.77954e-07 30.0002 	-1.79985e-07 	-5.8488e-07 30.0003 	-6.03069e-06 	-2.29211e-07 30.0003 	-6.03069e-06 	-2.29211e-07 30.0003 	-6.03069e-06 	-2.29211e-07 30.0003 	-6.03069e-06 	-2.29211e-07 30.0002 	-1.80573e-07 	-6.42146e-07 30.0003 	-6.05391e-06 	-2.76176e-07 30.0003 	-6.05391e-06 	-2.76176e-07 30.0003 	-6.05391e-06 	-2.76176e-07 30.0003 	-6.05391e-06 	-2.76176e-07 30.0002 	-2.70918e-06 	-4.78992e-07 30.0003 	-6.07777e-06 	-3.19657e-07 30.0003 	-6.07777e-06 	-3.19657e-07 30.0003 	-6.07777e-06 	-3.19657e-07 30.0003 	-6.07777e-06 	-3.19657e-07 30.0002 	-2.75021e-06 	-5.34034e-07 30.0003 	-6.10197e-06 	-3.61189e-07 30.0003 	-6.10196e-06 	-3.61189e-07 30.0003 	-6.10196e-06 	-3.61189e-07 30.0003 	-6.10196e-06 	-3.61189e-07 30.0002 	-1.82296e-07 	-8.03782e-07 30.0003 	-6.12599e-06 	-4.01387e-07 30.0003 	-6.12599e-06 	-4.01387e-07 30.0003 	-6.12599e-06 	-4.01387e-07 30.0003 	-6.12599e-06 	-4.01387e-07 30.0001 	-1.82838e-07 	-8.53102e-07 30.0003 	-6.14937e-06 	-4.4038e-07 30.0003 	-6.14937e-06 	-4.4038e-07 30.0003 	-6.14937e-06 	-4.4038e-07 30.0003 	-6.14937e-06 	-4.40379e-07 30.0001 	-1.83371e-07 	-9.00312e-07 30.0003 	-6.17203e-06 	-4.78004e-07 30.0003 	-6.17203e-06 	-4.78004e-07 30.0003 	-6.17203e-06 	-4.78004e-07 30.0003 	-6.17202e-06 	-4.78003e-07 30.0001 	-2.90968e-06 	-7.31463e-07 30.0003 	-6.19383e-06 	-5.14214e-07 30.0003 	-6.19383e-06 	-5.14214e-07 30.0003 	-6.19382e-06 	-5.14213e-07 30.0003 	-6.19382e-06 	-5.14213e-07 30.0001 	-2.94756e-06 	-7.75589e-07 30.0003 	-6.21472e-06 	-5.48837e-07 30.0003 	-6.21472e-06 	-5.48837e-07 30.0003 	-6.21472e-06 	-5.48837e-07 30.0003 	-6.21472e-06 	-5.48837e-07 30.0001 	-1.84885e-07 	-1.02952e-06 30.0003 	-6.2348e-06 	-5.82056e-07 30.0003 	-6.2348e-06 	-5.82056e-07 30.0003 	-6.2348e-06 	-5.82056e-07 30.0003 	-6.23479e-06 	-5.82056e-07 30.0001 	-3.02054e-06 	-8.57479e-07 30.0003 	-6.25408e-06 	-6.13899e-07 30.0003 	-6.25408e-06 	-6.13898e-07 30.0003 	-6.25407e-06 	-6.13898e-07 30.0003 	-6.25407e-06 	-6.13898e-07 30.0001 	-3.05563e-06 	-8.95483e-07 30.0003 	-6.27257e-06 	-6.44419e-07 30.0003 	-6.27257e-06 	-6.44419e-07 30.0003 	-6.27256e-06 	-6.44418e-07 30.0003 	-6.27256e-06 	-6.44418e-07 30.0001 	-1.86302e-07 	-1.14084e-06 30.0003 	-6.29027e-06 	-6.73621e-07 30.0003 	-6.29026e-06 	-6.73621e-07 30.0003 	-6.29026e-06 	-6.73621e-07 30.0003 	-6.29026e-06 	-6.7362e-07 30.0001 	-1.86748e-07 	-1.17459e-06 30.0003 	-6.30728e-06 	-7.01439e-07 30.0003 	-6.30727e-06 	-7.01439e-07 30.0003 	-6.30727e-06 	-7.01438e-07 30.0003 	-6.30727e-06 	-7.01438e-07 30.0001 	-1.872e-07 	-1.20668e-06 30.0003 	-6.32338e-06 	-7.27874e-07 30.0003 	-6.32338e-06 	-7.27874e-07 30.0003 	-6.32338e-06 	-7.27874e-07 30.0003 	-6.32337e-06 	-7.27873e-07 30.0001 	-3.18707e-06 	-1.031e-06 30.0003 	-6.33865e-06 	-7.52982e-07 30.0003 	-6.33865e-06 	-7.52982e-07 30.0003 	-6.33865e-06 	-7.52982e-07 30.0003 	-6.33865e-06 	-7.52981e-07 30.0001 	-1.88074e-07 	-1.26596e-06 30.0003 	-6.35318e-06 	-7.76949e-07 30.0003 	-6.35317e-06 	-7.76949e-07 30.0003 	-6.35317e-06 	-7.76949e-07 30.0003 	-6.35317e-06 	-7.76949e-07 30.0001 	-1.88484e-07 	-1.29332e-06 30.0003 	-6.36697e-06 	-7.9982e-07 30.0003 	-6.36697e-06 	-7.9982e-07 30.0003 	-6.36697e-06 	-7.9982e-07 30.0003 	-6.36697e-06 	-7.99819e-07 30.0001 	-3.27647e-06 	-1.11605e-06 30.0003 	-6.38005e-06 	-8.21549e-07 30.0003 	-6.38005e-06 	-8.21549e-07 30.0003 	-6.38005e-06 	-8.21549e-07 30.0003 	-6.38004e-06 	-8.21548e-07 30.0001 	-3.30457e-06 	-1.14152e-06 30.0003 	-6.39232e-06 	-8.41982e-07 30.0003 	-6.39232e-06 	-8.41982e-07 30.0003 	-6.39232e-06 	-8.41982e-07 30.0003 	-6.39232e-06 	-8.41982e-07 30.0001 	-1.89668e-07 	-1.36686e-06 30.0003 	-6.40394e-06 	-8.61373e-07 30.0003 	-6.40394e-06 	-8.61373e-07 30.0003 	-6.40394e-06 	-8.61373e-07 30.0003 	-6.40393e-06 	-8.61373e-07 30.0001 	-1.90048e-07 	-1.38873e-06 30.0003 	-6.41487e-06 	-8.7981e-07 30.0003 	-6.41487e-06 	-8.79809e-07 30.0003 	-6.41487e-06 	-8.79809e-07 30.0003 	-6.41486e-06 	-8.79809e-07 30.0001 	-1.90424e-07 	-1.40938e-06 30.0003 	-6.42511e-06 	-8.97297e-07 30.0003 	-6.42511e-06 	-8.97297e-07 30.0003 	-6.42511e-06 	-8.97296e-07 30.0003 	-6.42511e-06 	-8.97296e-07 30.0001 	-3.40887e-06 	-1.23052e-06 30.0003 	-6.43469e-06 	-9.13879e-07 30.0003 	-6.43469e-06 	-9.13879e-07 30.0003 	-6.43469e-06 	-9.13879e-07 30.0003 	-6.43469e-06 	-9.13879e-07 30.0001 	-3.433e-06 	-1.24985e-06 30.0003 	-6.44357e-06 	-9.29566e-07 30.0003 	-6.44356e-06 	-9.29565e-07 30.0003 	-6.44356e-06 	-9.29565e-07 30.0003 	-6.44356e-06 	-9.29565e-07 30.0001 	-1.91499e-07 	-1.46455e-06 30.0003 	-6.45182e-06 	-9.44422e-07 30.0003 	-6.45182e-06 	-9.44421e-07 30.0003 	-6.45181e-06 	-9.44421e-07 30.0003 	-6.45181e-06 	-9.44421e-07 30.0001 	-3.47906e-06 	-1.28534e-06 30.0003 	-6.45949e-06 	-9.58429e-07 30.0003 	-6.45949e-06 	-9.58429e-07 30.0003 	-6.45949e-06 	-9.58429e-07 30.0003 	-6.45949e-06 	-9.58428e-07 30.0001 	-3.50111e-06 	-1.3016e-06 30.0003 	-6.46658e-06 	-9.71716e-07 30.0003 	-6.46657e-06 	-9.71716e-07 30.0003 	-6.46657e-06 	-9.71716e-07 30.0003 	-6.46657e-06 	-9.71715e-07 30.00