# vtk DataFile Version 2.0
track0
ASCII
DATASET POLYDATA
POINTS 15780 float
-1.001 -0.05 0.0011
-1.0008 -0.05 0.0011
-1.0006 -0.05 0.0011
-1.0004 -0.05 0.0011
-1.0002 -0.05 0.0011
-1 -0.05 0.0011
-0.9875 -0.05 0.0011
-0.975 -0.05 0.0011
-0.9625 -0.05 0.0011
-0.95 -0.05 0.0011
-0.9375 -0.05 0.00109999
-0.925 -0.05 0.00109999
-0.9125 -0.05 0.00109999
-0.9 -0.05 0.00109999
-0.8875 -0.05 0.00109999
-0.875 -0.05 0.00109999
-0.8625 -0.05 0.00109999
-0.85 -0.05 0.00109999
-0.8375 -0.05 0.00109998
-0.825 -0.0500001 0.00109998
-0.8125 -0.0500001 0.00109998
-0.8 -0.0500001 0.00109998
-0.7875 -0.0500001 0.00109998
-0.775 -0.0500001 0.00109998
-0.7625 -0.0500001 0.00109998
-0.75 -0.0500001 0.00109998
-0.7375 -0.0500001 0.00109997
-0.725 -0.0500001 0.00109997
-0.7125 -0.0500001 0.00109997
-0.7 -0.0500001 0.00109997
-0.6875 -0.0500001 0.00109997
-0.675 -0.0500001 0.00109997
-0.6625 -0.0500001 0.00109997
-0.65 -0.0500001 0.00109996
-0.6375 -0.0500001 0.00109996
-0.625 -0.0500001 0.00109996
-0.6125 -0.0500001 0.00109996
-0.6 -0.0500001 0.00109996
-0.5875 -0.0500001 0.00109996
-0.575 -0.0500001 0.00109996
-0.5625 -0.0500001 0.00109996
-0.55 -0.0500001 0.00109995
-0.5375 -0.0500001 0.00109995
-0.525 -0.0500001 0.00109995
-0.5125 -0.0500001 0.00109995
-0.5 -0.0500001 0.00109995
-0.4875 -0.0500001 0.00109995
-0.475 -0.0500001 0.00109995
-0.4625 -0.0500001 0.00109994
-0.45 -0.0500002 0.00109994
-0.4375 -0.0500002 0.00109994
-0.425 -0.0500002 0.00109994
-0.4125 -0.0500002 0.00109994
-0.4 -0.0500002 0.00109994
-0.3875 -0.0500002 0.00109994
-0.375 -0.0500002 0.00109994
-0.3625 -0.0500002 0.00109993
-0.35 -0.0500002 0.00109993
-0.3375 -0.0500002 0.00109993
-0.325 -0.0500002 0.00109993
-0.3125 -0.0500002 0.00109993
-0.3 -0.0500002 0.00109993
-0.2875 -0.0500002 0.00109993
-0.275 -0.0500002 0.00109993
-0.2625 -0.0500002 0.00109992
-0.25 -0.0500002 0.00109992
-0.2375 -0.0500002 0.00109992
-0.225 -0.0500002 0.00109992
-0.2125 -0.0500002 0.00109992
-0.2 -0.0500002 0.00109992
-0.1875 -0.0500002 0.00109992
-0.175 -0.0500002 0.00109992
-0.1625 -0.0500002 0.00109991
-0.15 -0.0500002 0.00109991
-0.1375 -0.0500002 0.00109991
-0.125 -0.0500002 0.00109991
-0.1125 -0.0500002 0.00109991
-0.1 -0.0500002 0.00109991
-0.0875 -0.0500002 0.00109991
-0.075 -0.0500002 0.00109991
-0.0625 -0.0500002 0.00109991
-0.05 -0.0500003 0.00109991
-0.0375 -0.0500003 0.0010999
-0.025 -0.0500003 0.0010999
-0.0125 -0.0500003 0.0010999
2.10607e-13 -0.0500003 0.0010999
0.0125 -0.0500003 0.0010999
0.025 -0.0500003 0.0010999
0.0375 -0.0500003 0.0010999
0.05 -0.0500003 0.0010999
0.0625 -0.0500003 0.0010999
0.075 -0.0500003 0.0010999
0.0875 -0.0500003 0.0010999
0.1 -0.0500003 0.00109989
0.1125 -0.0500003 0.00109989
0.125 -0.0500003 0.00109989
0.1375 -0.0500003 0.00109989
0.15 -0.0500003 0.00109989
0.1625 -0.0500003 0.00109989
0.175 -0.0500003 0.00109989
0.1875 -0.0500003 0.00109989
0.2 -0.0500003 0.00109989
0.2125 -0.0500003 0.00109989
0.225 -0.0500003 0.00109989
0.2375 -0.0500003 0.00109989
0.25 -0.0500003 0.00109989
0.2625 -0.0500003 0.00109988
0.275 -0.0500003 0.00109988
0.2875 -0.0500003 0.00109988
0.3 -0.0500003 0.00109988
0.3125 -0.0500003 0.00109988
0.325 -0.0500003 0.00109988
0.3375 -0.0500003 0.00109988
0.35 -0.0500003 0.00109988
0.3625 -0.0500003 0.00109988
0.375 -0.0500003 0.00109988
0.3875 -0.0500003 0.00109988
0.4 -0.0500004 0.00109988
0.4125 -0.0500004 0.00109988
0.425 -0.0500004 0.00109988
0.4375 -0.0500004 0.00109988
0.45 -0.0500004 0.00109988
0.4625 -0.0500004 0.00109988
0.475 -0.0500004 0.00109988
0.4875 -0.0500004 0.00109988
0.5 -0.0500004 0.00109988
0.5125 -0.0500004 0.00109988
0.525 -0.0500004 0.00109988
0.5375 -0.0500004 0.00109988
0.55 -0.0500004 0.00109988
0.5625 -0.0500004 0.00109988
0.575 -0.0500004 0.00109987
0.5875 -0.0500004 0.00109987
0.6 -0.0500004 0.00109987
0.6125 -0.0500004 0.00109987
0.625 -0.0500004 0.00109987
0.6375 -0.0500004 0.00109987
0.65 -0.0500004 0.00109987
0.6625 -0.0500004 0.00109987
0.675 -0.0500004 0.00109987
0.6875 -0.0500004 0.00109987
0.7 -0.0500004 0.00109987
0.7125 -0.0500004 0.00109987
0.725 -0.0500004 0.00109987
0.7375 -0.0500004 0.00109987
0.75 -0.0500004 0.00109987
0.7625 -0.0500004 0.00109987
0.775 -0.0500004 0.00109987
0.7875 -0.0500004 0.00109987
0.8 -0.0500004 0.00109987
0.8125 -0.0500004 0.00109987
0.825 -0.0500004 0.00109987
0.8375 -0.0500004 0.00109987
0.85 -0.0500004 0.00109987
0.8625 -0.0500004 0.00109987
0.875 -0.0500004 0.00109987
0.8875 -0.0500004 0.00109987
0.9 -0.0500004 0.00109987
0.9125 -0.0500005 0.00109988
0.925 -0.0500005 0.00109988
0.9375 -0.0500005 0.00109988
0.95 -0.0500005 0.00109988
0.9625 -0.0500005 0.00109988
0.975 -0.0500005 0.00109988
0.9875 -0.0500005 0.00109988
1 -0.0500005 0.00109988
1.0125 -0.0500005 0.00109988
1.025 -0.0500005 0.00109988
1.0375 -0.0500005 0.00109988
1.05 -0.0500005 0.00109988
1.0625 -0.0500005 0.00109988
1.075 -0.0500005 0.00109988
1.0875 -0.0500005 0.00109988
1.1 -0.0500005 0.00109988
1.1125 -0.0500005 0.00109988
1.125 -0.0500005 0.00109988
1.1375 -0.0500005 0.00109988
1.15 -0.0500005 0.00109988
1.1625 -0.0500005 0.00109988
1.175 -0.0500005 0.00109988
1.1875 -0.0500005 0.00109988
1.2 -0.0500005 0.00109988
1.2125 -0.0500005 0.00109988
1.225 -0.0500005 0.00109988
1.2375 -0.0500005 0.00109989
1.25 -0.0500005 0.00109989
1.2625 -0.0500005 0.00109989
1.275 -0.0500005 0.00109989
1.2875 -0.0500005 0.00109989
1.3 -0.0500005 0.00109989
1.3125 -0.0500005 0.00109989
1.325 -0.0500005 0.00109989
1.3375 -0.0500005 0.00109989
1.35 -0.0500005 0.00109989
1.3625 -0.0500005 0.00109989
1.375 -0.0500005 0.00109989
1.3875 -0.0500005 0.00109989
1.4 -0.0500005 0.00109989
1.4125 -0.0500005 0.00109989
1.425 -0.0500005 0.00109989
1.4375 -0.0500005 0.0010999
1.45 -0.0500005 0.0010999
1.4625 -0.0500005 0.0010999
1.475 -0.0500005 0.0010999
1.4875 -0.0500005 0.0010999
1.5 -0.0500006 0.0010999
1.5125 -0.0500006 0.0010999
1.525 -0.0500006 0.0010999
1.5375 -0.0500006 0.0010999
1.55 -0.0500006 0.0010999
1.5625 -0.0500006 0.0010999
1.575 -0.0500006 0.0010999
1.5875 -0.0500006 0.0010999
1.6 -0.0500006 0.0010999
1.6125 -0.0500006 0.00109991
1.625 -0.0500006 0.00109991
1.6375 -0.0500006 0.00109991
1.65 -0.0500006 0.00109991
1.6625 -0.0500006 0.00109991
1.675 -0.0500006 0.00109991
1.6875 -0.0500006 0.00109991
1.7 -0.0500006 0.00109991
1.7125 -0.0500006 0.00109991
1.725 -0.0500006 0.00109991
1.7375 -0.0500006 0.00109991
1.75 -0.0500006 0.00109991
1.7625 -0.0500006 0.00109992
1.775 -0.0500006 0.00109992
1.7875 -0.0500006 0.00109992
1.8 -0.0500006 0.00109992
1.8125 -0.0500006 0.00109992
1.825 -0.0500006 0.00109992
1.8375 -0.0500006 0.00109992
1.85 -0.0500006 0.00109992
1.8625 -0.0500006 0.00109992
1.875 -0.0500006 0.00109992
1.8875 -0.0500006 0.00109992
1.9 -0.0500006 0.00109992
1.9125 -0.0500006 0.00109993
1.925 -0.0500006 0.00109993
1.9375 -0.0500006 0.00109993
1.95 -0.0500006 0.00109993
1.9625 -0.0500006 0.00109993
1.975 -0.0500006 0.00109993
1.9875 -0.0500006 0.00109993
2 -0.0500006 0.00109993
2.0125 -0.0500006 0.00109993
2.025 -0.0500006 0.00109993
2.0375 -0.0500006 0.00109993
2.05 -0.0500006 0.00109993
2.0625 -0.0500006 0.00109994
2.075 -0.0500006 0.00109994
2.0875 -0.0500006 0.00109994
2.1 -0.0500006 0.00109994
2.1125 -0.0500006 0.00109994
2.125 -0.0500006 0.00109994
2.1375 -0.0500006 0.00109994
2.15 -0.0500006 0.00109994
2.1625 -0.0500006 0.00109994
2.175 -0.0500007 0.00109994
2.1875 -0.0500007 0.00109994
2.2 -0.0500007 0.00109994
2.2125 -0.0500007 0.00109994
2.225 -0.0500007 0.00109995
2.2375 -0.0500007 0.00109995
2.25 -0.0500007 0.00109995
2.2625 -0.0500007 0.00109995
2.275 -0.0500007 0.00109995
2.2875 -0.0500007 0.00109995
2.3 -0.0500007 0.00109995
2.3125 -0.0500007 0.00109995
2.325 -0.0500007 0.00109995
2.3375 -0.0500007 0.00109995
2.35 -0.0500007 0.00109995
2.3625 -0.0500007 0.00109995
2.375 -0.0500007 0.00109995
2.3875 -0.0500007 0.00109996
2.4 -0.0500007 0.00109996
2.4125 -0.0500007 0.00109996
2.425 -0.0500007 0.00109996
2.4375 -0.0500007 0.00109996
2.45 -0.0500007 0.00109996
2.4625 -0.0500007 0.00109996
2.475 -0.0500007 0.00109996
2.4875 -0.0500007 0.00109996
2.5 -0.0500007 0.00109996
2.5125 -0.0500007 0.00109996
2.525 -0.0500007 0.00109996
2.5375 -0.0500007 0.00109996
2.55 -0.0500007 0.00109996
2.5625 -0.0500007 0.00109997
2.575 -0.0500007 0.00109997
2.5875 -0.0500007 0.00109997
2.6 -0.0500007 0.00109997
2.6125 -0.0500007 0.00109997
2.625 -0.0500007 0.00109997
2.6375 -0.0500007 0.00109997
2.65 -0.0500007 0.00109997
2.6625 -0.0500007 0.00109997
2.675 -0.0500007 0.00109997
2.6875 -0.0500007 0.00109997
2.7 -0.0500007 0.00109997
2.7125 -0.0500007 0.00109997
2.725 -0.0500007 0.00109997
2.7375 -0.0500007 0.00109997
2.75 -0.0500007 0.00109997
2.7625 -0.0500007 0.00109998
2.775 -0.0500007 0.00109998
2.7875 -0.0500007 0.00109998
2.8 -0.0500007 0.00109998
2.8125 -0.0500007 0.00109998
2.825 -0.0500007 0.00109998
2.8375 -0.0500007 0.00109998
2.85 -0.0500007 0.00109998
2.8625 -0.0500008 0.00109998
2.875 -0.0500008 0.00109998
2.8875 -0.0500008 0.00109998
2.9 -0.0500008 0.00109998
2.9125 -0.0500008 0.00109998
2.925 -0.0500008 0.00109998
2.9375 -0.0500008 0.00109998
2.95 -0.0500008 0.00109998
2.9625 -0.0500008 0.00109998
2.975 -0.0500008 0.00109998
2.9875 -0.0500008 0.00109998
3 -0.0500008 0.00109998
3.0125 -0.0500008 0.00109999
3.025 -0.0500008 0.00109999
3.0375 -0.0500008 0.00109999
3.05 -0.0500008 0.00109999
3.0625 -0.0500008 0.00109999
3.075 -0.0500008 0.00109999
3.0875 -0.0500008 0.00109999
3.1 -0.0500008 0.00109999
3.1125 -0.0500008 0.00109999
3.125 -0.0500008 0.00109999
3.1375 -0.0500008 0.00109999
3.15 -0.0500008 0.00109999
3.1625 -0.0500008 0.00109999
3.175 -0.0500008 0.00109999
3.1875 -0.0500008 0.00109999
3.2 -0.0500008 0.00109999
3.2125 -0.0500008 0.00109999
3.225 -0.0500008 0.00109999
3.2375 -0.0500008 0.00109999
3.25 -0.0500008 0.00109999
3.2625 -0.0500008 0.00109999
3.275 -0.0500008 0.00109999
3.2875 -0.0500008 0.00109999
3.3 -0.0500008 0.00109999
3.3125 -0.0500008 0.00109999
3.325 -0.0500008 0.00109999
3.3375 -0.0500008 0.00109999
3.35 -0.0500008 0.0011
3.3625 -0.0500008 0.0011
[...]
POINT_DATA 15780
 FIELD attributes 1
U 3 15780 float
30.0002 	-7.01771e-06 	-6.30588e-06 30.0002 	-6.84323e-06 	-6.51454e-06 30.0002 	-6.66875e-06 	-6.72321e-06 30.0002 	-6.49427e-06 	-6.93188e-06 30.0002 	-6.31978e-06 	-7.14055e-06 30.0002 	-6.1453e-06 	-7.34921e-06 30.0004 	-1.23849e-05 	-1.26099e-06 30.0004 	-1.23849e-05 	-1.26098e-06 30.0004 	-1.23849e-05 	-1.26098e-06 30.0004 	-1.23849e-05 	-1.26098e-06 30.0002 	-7.03842e-08 	-6.84367e-06 30.0005 	-1.07088e-05 	-1.68703e-06 30.0005 	-1.07088e-05 	-1.68703e-06 30.0005 	-1.07088e-05 	-1.68703e-06 30.0005 	-1.07088e-05 	-1.68703e-06 30.0002 	-7.20695e-08 	-6.59608e-06 30.0005 	-9.95821e-06 	-2.08021e-06 30.0005 	-9.9582e-06 	-2.08021e-06 30.0005 	-9.95819e-06 	-2.08021e-06 30.0005 	-9.95819e-06 	-2.08021e-06 30.0003 	-4.59295e-06 	-6.24726e-06 30.0005 	-9.69145e-06 	-2.34894e-06 30.0005 	-9.69144e-06 	-2.34894e-06 30.0005 	-9.69143e-06 	-2.34894e-06 30.0005 	-9.69142e-06 	-2.34893e-06 30.0003 	-7.56798e-08 	-6.57615e-06 30.0005 	-9.52329e-06 	-2.49781e-06 30.0005 	-9.52328e-06 	-2.49781e-06 30.0005 	-9.52327e-06 	-2.49781e-06 30.0005 	-9.52326e-06 	-2.4978e-06 30.0003 	-7.74459e-08 	-6.52627e-06 30.0005 	-9.38693e-06 	-2.55605e-06 30.0005 	-9.38692e-06 	-2.55605e-06 30.0005 	-9.38691e-06 	-2.55605e-06 30.0005 	-9.3869e-06 	-2.55605e-06 30.0003 	-4.26679e-06 	-6.08529e-06 30.0005 	-9.2795e-06 	-2.55829e-06 30.0005 	-9.27949e-06 	-2.55828e-06 30.0005 	-9.27948e-06 	-2.55828e-06 30.0005 	-9.27948e-06 	-2.55828e-06 30.0003 	-4.19919e-06 	-5.97789e-06 30.0006 	-9.18734e-06 	-2.53042e-06 30.0006 	-9.18733e-06 	-2.53042e-06 30.0006 	-9.18732e-06 	-2.53042e-06 30.0006 	-9.18731e-06 	-2.53041e-06 30.0003 	-8.27644e-08 	-6.20127e-06 30.0006 	-9.09727e-06 	-2.48117e-06 30.0006 	-9.09726e-06 	-2.48117e-06 30.0006 	-9.09725e-06 	-2.48117e-06 30.0006 	-9.09725e-06 	-2.48117e-06 30.0003 	-8.45154e-08 	-6.05424e-06 30.0006 	-9.00481e-06 	-2.4136e-06 30.0006 	-9.0048e-06 	-2.4136e-06 30.0006 	-9.00479e-06 	-2.4136e-06 30.0006 	-9.00478e-06 	-2.4136e-06 30.0003 	-8.62643e-08 	-5.88782e-06 30.0006 	-8.90865e-06 	-2.32972e-06 30.0006 	-8.90865e-06 	-2.32972e-06 30.0006 	-8.90864e-06 	-2.32972e-06 30.0006 	-8.90863e-06 	-2.32971e-06 30.0003 	-3.93779e-06 	-5.36347e-06 30.0006 	-8.8086e-06 	-2.23274e-06 30.0006 	-8.80859e-06 	-2.23274e-06 30.0006 	-8.80859e-06 	-2.23274e-06 30.0006 	-8.80858e-06 	-2.23273e-06 30.0003 	-3.864e-06 	-5.16476e-06 30.0006 	-8.70433e-06 	-2.12413e-06 30.0006 	-8.70432e-06 	-2.12413e-06 30.0006 	-8.70431e-06 	-2.12413e-06 30.0006 	-8.70431e-06 	-2.12413e-06 30.0003 	-9.15172e-08 	-5.28458e-06 30.0006 	-8.59612e-06 	-2.00507e-06 30.0006 	-8.59611e-06 	-2.00507e-06 30.0006 	-8.59611e-06 	-2.00507e-06 30.0006 	-8.5961e-06 	-2.00507e-06 30.0003 	-3.70437e-06 	-4.7194e-06 30.0007 	-8.48473e-06 	-1.87668e-06 30.0007 	-8.48473e-06 	-1.87668e-06 30.0007 	-8.48472e-06 	-1.87667e-06 30.0007 	-8.48471e-06 	-1.87667e-06 30.0003 	-3.61926e-06 	-4.47431e-06 30.0007 	-8.37137e-06 	-1.73883e-06 30.0007 	-8.37137e-06 	-1.73883e-06 30.0007 	-8.37136e-06 	-1.73883e-06 30.0007 	-8.37136e-06 	-1.73883e-06 30.0004 	-9.67117e-08 	-4.54319e-06 30.0007 	-8.25977e-06 	-1.59803e-06 30.0007 	-8.25976e-06 	-1.59803e-06 30.0007 	-8.25976e-06 	-1.59803e-06 30.0007 	-8.25975e-06 	-1.59803e-06 30.0004 	-9.84302e-08 	-4.27124e-06 30.0007 	-8.14774e-06 	-1.46323e-06 30.0007 	-8.14773e-06 	-1.46323e-06 30.0007 	-8.14773e-06 	-1.46323e-06 30.0007 	-8.14773e-06 	-1.46323e-06 30.0004 	-1.00143e-07 	-3.98927e-06 30.0007 	-8.01963e-06 	-1.32072e-06 30.0007 	-8.01963e-06 	-1.32072e-06 30.0007 	-8.01962e-06 	-1.32072e-06 30.0007 	-8.01962e-06 	-1.32072e-06 30.0004 	-3.25082e-06 	-3.37795e-06 30.0007 	-7.8808e-06 	-1.168e-06 30.0007 	-7.8808e-06 	-1.168e-06 30.0007 	-7.8808e-06 	-1.168e-06 30.0007 	-7.88079e-06 	-1.168e-06 30.0004 	-1.03531e-07 	-3.40288e-06 30.0007 	-7.74484e-06 	-1.00787e-06 30.0007 	-7.74484e-06 	-1.00787e-06 30.0007 	-7.74484e-06 	-1.00787e-06 30.0007 	-7.74484e-06 	-1.00787e-06 30.0004 	-1.05222e-07 	-3.10327e-06 30.0007 	-7.61068e-06 	-8.41858e-07 30.0007 	-7.61068e-06 	-8.41857e-07 30.0007 	-7.61068e-06 	-8.41857e-07 30.0007 	-7.61067e-06 	-8.41857e-07 30.0004 	-2.9316e-06 	-2.48789e-06 30.0007 	-7.47488e-06 	-6.70204e-07 30.0007 	-7.47487e-06 	-6.70204e-07 30.0007 	-7.47487e-06 	-6.70204e-07 30.0007 	-7.47487e-06 	-6.70204e-07 30.0004 	-2.8251e-06 	-2.18313e-06 30.0007 	-7.34271e-06 	-4.9705e-07 30.0007 	-7.3427e-06 	-4.9705e-07 30.0007 	-7.3427e-06 	-4.9705e-07 30.0007 	-7.3427e-06 	-4.97049e-07 30.0004 	-1.10252e-07 	-2.1711e-06 30.0007 	-7.21488e-06 	-3.17323e-07 30.0007 	-7.21487e-06 	-3.17323e-07 30.0007 	-7.21487e-06 	-3.17323e-07 30.0007 	-7.21487e-06 	-3.17323e-07 30.0004 	-1.11909e-07 	-1.85336e-06 30.0007 	-7.0981e-06 	-1.38218e-07 30.0007 	-7.0981e-06 	-1.38218e-07 30.0007 	-7.0981e-06 	-1.38218e-07 30.0007 	-7.0981e-06 	-1.38218e-07 30.0004 	-1.13551e-07 	-1.54902e-06 30.0007 	-6.98474e-06 	4.08478e-08 30.0007 	-6.98474e-06 	4.08478e-08 30.0007 	-6.98474e-06 	4.08478e-08 30.0007 	-6.98474e-06 	4.08478e-08 30.0004 	-2.43858e-06 	-9.58512e-07 30.0007 	-6.87112e-06 	2.14663e-07 30.0007 	-6.87112e-06 	2.14663e-07 30.0007 	-6.87112e-06 	2.14663e-07 30.0007 	-6.87112e-06 	2.14663e-07 30.0004 	-2.34696e-06 	-6.82311e-07 30.0007 	-6.75291e-06 	3.90713e-07 30.0007 	-6.75292e-06 	3.90713e-07 30.0007 	-6.75292e-06 	3.90713e-07 30.0007 	-6.75292e-06 	3.90713e-07 30.0004 	-1.1846e-07 	-7.09773e-07 30.0007 	-6.64237e-06 	5.64365e-07 30.0007 	-6.64238e-06 	5.64365e-07 30.0007 	-6.64238e-06 	5.64365e-07 30.0007 	-6.64238e-06 	5.64365e-07 30.0004 	-2.16658e-06 	-1.45452e-07 30.0007 	-6.53537e-06 	7.27391e-07 30.0007 	-6.53537e-06 	7.27391e-07 30.0007 	-6.53537e-06 	7.27391e-07 30.0007 	-6.53537e-06 	7.27391e-07 30.0004 	-2.0809e-06 	1.13826e-07 30.0007 	-6.43004e-06 	8.78829e-07 30.0007 	-6.43004e-06 	8.7883e-07 30.0007 	-6.43004e-06 	8.7883e-07 30.0007 	-6.43005e-06 	8.7883e-07 30.0004 	-1.23339e-07 	7.05737e-08 30.0007 	-6.32245e-06 	1.01778e-06 30.0007 	-6.32245e-06 	1.01778e-06 30.0007 	-6.32245e-06 	1.01778e-06 30.0007 	-6.32245e-06 	1.01778e-06 30.0004 	-1.24924e-07 	3.15803e-07 30.0007 	-6.21606e-06 	1.14061e-06 30.0007 	-6.21606e-06 	1.14061e-06 30.0007 	-6.21606e-06 	1.14061e-06 30.0007 	-6.21606e-06 	1.14061e-06 30.0004 	-1.26502e-07 	5.4552e-07 30.0007 	-6.11477e-06 	1.25631e-06 30.0007 	-6.11477e-06 	1.25631e-06 30.0007 	-6.11477e-06 	1.25631e-06 30.0007 	-6.11478e-06 	1.25631e-06 30.0004 	-1.76406e-06 	1.03207e-06 30.0007 	-6.02202e-06 	1.37126e-06 30.0007 	-6.02202e-06 	1.37126e-06 30.0007 	-6.02203e-06 	1.37126e-06 30.0007 	-6.02203e-06 	1.37127e-06 30.0004 	-1.2959e-07 	9.36936e-07 30.0007 	-5.94235e-06 	1.48849e-06 30.0007 	-5.94236e-06 	1.48849e-06 30.0007 	-5.94236e-06 	1.48849e-06 30.0007 	-5.94236e-06 	1.48849e-06 30.0004 	-1.3109e-07 	1.10455e-06 30.0007 	-5.87113e-06 	1.59288e-06 30.0007 	-5.87113e-06 	1.59288e-06 30.0007 	-5.87113e-06 	1.59288e-06 30.0007 	-5.87114e-06 	1.59288e-06 30.0004 	-1.59117e-06 	1.53876e-06 30.0007 	-5.80151e-06 	1.67931e-06 30.0007 	-5.80151e-06 	1.67931e-06 30.0007 	-5.80151e-06 	1.67931e-06 30.0007 	-5.80152e-06 	1.67931e-06 30.0003 	-1.54396e-06 	1.67821e-06 30.0007 	-5.73343e-06 	1.7501e-06 30.0007 	-5.73343e-06 	1.7501e-06 30.0007 	-5.73343e-06 	1.7501e-06 30.0007 	-5.73344e-06 	1.7501e-06 30.0003 	-1.35794e-07 	1.52472e-06 30.0006 	-5.66829e-06 	1.8098e-06 30.0006 	-5.66829e-06 	1.8098e-06 30.0006 	-5.6683e-06 	1.8098e-06 30.0006 	-5.6683e-06 	1.80981e-06 30.0003 	-1.3735e-07 	1.63227e-06 30.0006 	-5.60821e-06 	1.85994e-06 30.0006 	-5.60821e-06 	1.85994e-06 30.0006 	-5.60822e-06 	1.85994e-06 30.0006 	-5.60822e-06 	1.85994e-06 30.0003 	-1.38819e-07 	1.72399e-06 30.0006 	-5.55391e-06 	1.90043e-06 30.0006 	-5.55391e-06 	1.90043e-06 30.0006 	-5.55392e-06 	1.90043e-06 30.0006 	-5.55392e-06 	1.90043e-06 30.0003 	-1.38864e-06 	2.07103e-06 30.0006 	-5.50507e-06 	1.93109e-06 30.0006 	-5.50508e-06 	1.93109e-06 30.0006 	-5.50508e-06 	1.93109e-06 30.0006 	-5.50508e-06 	1.93109e-06 30.0003 	-1.36161e-06 	2.13096e-06 30.0006 	-5.46135e-06 	1.95183e-06 30.0006 	-5.46135e-06 	1.95183e-06 30.0006 	-5.46135e-06 	1.95183e-06 30.0006 	-5.46136e-06 	1.95183e-06 30.0003 	-1.42871e-07 	1.90826e-06 30.0006 	-5.42258e-06 	1.96278e-06 30.0006 	-5.42258e-06 	1.96278e-06 30.0006 	-5.42258e-06 	1.96278e-06 30.0006 	-5.42259e-06 	1.96278e-06 30.0003 	-1.32325e-06 	2.20766e-06 30.0006 	-5.38861e-06 	1.96431e-06 30.0006 	-5.38862e-06 	1.96431e-06 30.0006 	-5.38862e-06 	1.96432e-06 30.0006 	-5.38862e-06 	1.96432e-06 30.0003 	-1.31147e-06 	2.22555e-06 30.0006 	-5.35944e-06 	1.95691e-06 30.0006 	-5.35945e-06 	1.95691e-06 30.0006 	-5.35945e-06 	1.95692e-06 30.0006 	-5.35945e-06 	1.95692e-06 30.0003 	-1.46775e-07 	1.96617e-06 30.0005 	-5.335e-06 	1.94112e-06 30.0005 	-5.335e-06 	1.94112e-06 30.0005 	-5.335e-06 	1.94112e-06 30.0005 	-5.33501e-06 	1.94112e-06 30.0003 	-1.48042e-07 	1.96057e-06 30.0005 	-5.315e-06 	1.91793e-06 30.0005 	-5.31501e-06 	1.91793e-06 30.0005 	-5.31501e-06 	1.91793e-06 30.0005 	-5.31501e-06 	1.91793e-06 30.0003 	-1.49258e-07 	1.94424e-06 30.0005 	-5.2994e-06 	1.888e-06 30.0005 	-5.29941e-06 	1.888e-06 30.0005 	-5.29941e-06 	1.888e-06 30.0005 	-5.29941e-06 	1.88801e-06 30.0003 	-1.30894e-06 	2.17901e-06 30.0005 	-5.28806e-06 	1.8519e-06 30.0005 	-5.28806e-06 	1.85191e-06 30.0005 	-5.28807e-06 	1.85191e-06 30.0005 	-5.28807e-06 	1.85191e-06 30.0003 	-1.51611e-07 	1.8823e-06 30.0005 	-5.28079e-06 	1.81008e-06 30.0005 	-5.2808e-06 	1.81008e-06 30.0005 	-5.2808e-06 	1.81009e-06 30.0005 	-5.2808e-06 	1.81009e-06 30.0003 	-1.52737e-07 	1.83818e-06 30.0005 	-5.27735e-06 	1.76316e-06 30.0005 	-5.27736e-06 	1.76316e-06 30.0005 	-5.27736e-06 	1.76317e-06 30.0005 	-5.27736e-06 	1.76317e-06 30.0003 	-1.34817e-06 	2.04409e-06 30.0005 	-5.27753e-06 	1.71163e-06 30.0005 	-5.27753e-06 	1.71163e-06 30.0005 	-5.27754e-06 	1.71163e-06 30.0005 	-5.27754e-06 	1.71163e-06 30.0003 	-1.36824e-06 	1.98425e-06 30.0005 	-5.28112e-06 	1.656e-06 30.0005 	-5.28112e-06 	1.656e-06 30.0005 	-5.28113e-06 	1.656e-06 30.0005 	-5.28113e-06 	1.656e-06 30.0002 	-1.55969e-07 	1.66282e-06 30.0005 	-5.28793e-06 	1.59669e-06 30.0005 	-5.28793e-06 	1.59669e-06 30.0005 	-5.28793e-06 	1.59669e-06 30.0005 	-5.28794e-06 	1.59669e-06 30.0002 	-1.57029e-07 	1.59257e-06 30.0004 	-5.29789e-06 	1.53417e-06 30.0004 	-5.29789e-06 	1.53417e-06 30.0004 	-5.29789e-06 	1.53417e-06 30.0004 	-5.2979e-06 	1.53417e-06 30.0002 	-1.58108e-07 	1.51771e-06 30.0004 	-5.31084e-06 	1.46891e-06 30.0004 	-5.31084e-06 	1.46891e-06 30.0004 	-5.31084e-06 	1.46891e-06 30.0004 	-5.31085e-06 	1.46891e-06 30.0002 	-1.47992e-06 	1.69064e-06 30.0004 	-5.32639e-06 	1.40146e-06 30.0004 	-5.32639e-06 	1.40146e-06 30.0004 	-5.3264e-06 	1.40146e-06 30.0004 	-5.3264e-06 	1.40146e-06 30.0002 	-1.51445e-06 	1.60715e-06 30.0004 	-5.34431e-06 	1.33221e-06 30.0004 	-5.34431e-06 	1.33221e-06 30.0004 	-5.34431e-06 	1.33221e-06 30.0004 	-5.34432e-06 	1.33222e-06 30.0002 	-1.61385e-07 	1.27188e-06 30.0004 	-5.36435e-06 	1.2615e-06 30.0004 	-5.36436e-06 	1.2615e-06 30.0004 	-5.36436e-06 	1.2615e-06 30.0004 	-5.36436e-06 	1.2615e-06 30.0002 	-1.5898e-06 	1.43252e-06 30.0004 	-5.38618e-06 	1.18983e-06 30.0004 	-5.38618e-06 	1.18983e-06 30.0004 	-5.38618e-06 	1.18983e-06 30.0004 	-5.38619e-06 	1.18983e-06 30.0002 	-1.63029e-06 	1.34244e-06 30.0004 	-5.40982e-06 	1.11751e-06 30.0004 	-5.40982e-06 	1.11751e-06 30.0004 	-5.40982e-06 	1.11751e-06 30.0004 	-5.40982e-06 	1.11751e-06 30.0002 	-1.64425e-07 	1.00611e-06 30.0004 	-5.43497e-06 	1.04483e-06 30.0004 	-5.43497e-06 	1.04483e-06 30.0004 	-5.43497e-06 	1.04483e-06 30.0004 	-5.43497e-06 	1.04483e-06 30.0002 	-1.65378e-07 	9.15636e-07 30.0004 	-5.46064e-06 	9.72296e-07 30.0004 	-5.46064e-06 	9.72297e-07 30.0004 	-5.46064e-06 	9.72297e-07 30.0004 	-5.46065e-06 	9.72297e-07 30.0002 	-1.66286e-07 	8.25015e-07 30.0004 	-5.4867e-06 	8.99521e-07 30.0004 	-5.4867e-06 	8.99521e-07 30.0004 	-5.4867e-06 	8.99522e-07 30.0004 	-5.48671e-06 	8.99522e-07 30.0002 	-1.80721e-06 	9.75447e-07 30.0004 	-5.5135e-06 	8.25987e-07 30.0004 	-5.5135e-06 	8.25987e-07 30.0004 	-5.5135e-06 	8.25988e-07 30.0004 	-5.51351e-06 	8.25988e-07 30.0002 	-1.68002e-07 	6.43649e-07 30.0003 	-5.54326e-06 	7.52027e-07 30.0003 	-5.54326e-06 	7.52028e-07 30.0003 	-5.54326e-06 	7.52028e-07 30.0003 	-5.54326e-06 	7.52028e-07 30.0002 	-1.68828e-07 	5.52656e-07 30.0003 	-5.57775e-06 	6.77484e-07 30.0003 	-5.57776e-06 	6.77484e-07 30.0003 	-5.57776e-06 	6.77484e-07 30.0003 	-5.57776e-06 	6.77485e-07 30.0002 	-1.95559e-06 	7.01341e-07 30.0003 	-5.61462e-06 	6.04422e-07 30.0003 	-5.61463e-06 	6.04422e-07 30.0003 	-5.61463e-06 	6.04422e-07 30.0003 	-5.61463e-06 	6.04422e-07 30.0002 	-2.00779e-06 	6.1171e-07 30.0003 	-5.65072e-06 	5.34703e-07 30.0003 	-5.65072e-06 	5.34703e-07 30.0003 	-5.65072e-06 	5.34704e-07 30.0003 	-5.65072e-06 	5.34704e-07 30.0002 	-1.71329e-07 	2.80962e-07 30.0003 	-5.68184e-06 	4.6768e-07 30.0003 	-5.68184e-06 	4.6768e-07 30.0003 	-5.68184e-06 	4.6768e-07 30.0003 	-5.68184e-06 	4.6768e-07 30.0002 	-1.72161e-07 	1.97348e-07 30.0003 	-5.71027e-06 	4.03236e-07 30.0003 	-5.71027e-06 	4.03236e-07 30.0003 	-5.71027e-06 	4.03236e-07 30.0003 	-5.71028e-06 	4.03236e-07 30.0002 	-1.72962e-07 	1.16418e-07 30.0003 	-5.73845e-06 	3.39276e-07 30.0003 	-5.73845e-06 	3.39276e-07 30.0003 	-5.73845e-06 	3.39276e-07 30.0003 	-5.73845e-06 	3.39276e-07 30.0002 	-2.20106e-06 	2.7411e-07 30.0003 	-5.76643e-06 	2.7531e-07 30.0003 	-5.76643e-06 	2.7531e-07 30.0003 	-5.76643e-06 	2.7531e-07 30.0003 	-5.76643e-06 	2.7531e-07 30.0002 	-2.24799e-06 	1.96366e-07 30.0003 	-5.79316e-06 	2.10822e-07 30.0003 	-5.79316e-06 	2.10822e-07 30.0003 	-5.79316e-06 	2.10822e-07 30.0003 	-5.79317e-06 	2.10823e-07 30.0002 	-1.75131e-07 	-1.09131e-07 30.0003 	-5.82118e-06 	1.48812e-07 30.0003 	-5.82118e-06 	1.48812e-07 30.0003 	-5.82118e-06 	1.48812e-07 30.0003 	-5.82118e-06 	1.48812e-07 30.0002 	-2.34176e-06 	4.46807e-08 30.0003 	-5.85044e-06 	9.00197e-08 30.0003 	-5.85044e-06 	9.00197e-08 30.0003 	-5.85044e-06 	9.00197e-08 30.0003 	-5.85044e-06 	9.00197e-08 30.0002 	-2.38907e-06 	-2.90953e-08 30.0003 	-5.88087e-06 	3.48483e-08 30.0003 	-5.88087e-06 	3.48483e-08 30.0003 	-5.88087e-06 	3.48483e-08 30.0003 	-5.88087e-06 	3.48483e-08 30.0002 	-1.77133e-07 	-3.30762e-07 30.0003 	-5.9126e-06 	-1.70389e-08 30.0003 	-5.9126e-06 	-1.70389e-08 30.0003 	-5.9126e-06 	-1.70389e-08 30.0003 	-5.9126e-06 	-1.70389e-08 30.0002 	-1.77757e-07 	-4.01798e-07 30.0003 	-5.94573e-06 	-6.90189e-08 30.0003 	-5.94573e-06 	-6.90189e-08 30.0003 	-5.94573e-06 	-6.90189e-08 30.0003 	-5.94573e-06 	-6.90189e-08 30.0002 	-1.78366e-07 	-4.67069e-07 30.0003 	-5.9777e-06 	-1.23279e-07 30.0003 	-5.9777e-06 	-1.23279e-07 30.0003 	-5.9777e-06 	-1.23279e-07 30.0003 	-5.9777e-06 	-1.23279e-07 30.0002 	-2.5806e-06 	-3.01373e-07 30.0003 	-6.00548e-06 	-1.77924e-07 30.0003 	-6.00548e-06 	-1.77924e-07 30.0003 	-6.00548e-06 	-1.77924e-07 30.0003 	-6.00548e-06 	-1.77924e-07 30.0002 	-1.79555e-07 	-5.84883e-07 30.0003 	-6.02961e-06 	-2.29183e-07 30.0003 	-6.02961e-06 	-2.29183e-07 30.0003 	-6.02961e-06 	-2.29183e-07 30.0003 	-6.02961e-06 	-2.29183e-07 30.0002 	-1.80147e-07 	-6.42147e-07 30.0003 	-6.05286e-06 	-2.76145e-07 30.0003 	-6.05286e-06 	-2.76145e-07 30.0003 	-6.05286e-06 	-2.76145e-07 30.0003 	-6.05286e-06 	-2.76145e-07 30.0002 	-2.70868e-06 	-4.78977e-07 30.0003 	-6.07673e-06 	-3.19622e-07 30.0003 	-6.07673e-06 	-3.19622e-07 30.0003 	-6.07673e-06 	-3.19622e-07 30.0003 	-6.07673e-06 	-3.19622e-07 30.0002 	-2.74971e-06 	-5.34022e-07 30.0003 	-6.10096e-06 	-3.61159e-07 30.0003 	-6.10096e-06 	-3.61159e-07 30.0003 	-6.10096e-06 	-3.61159e-07 30.0003 	-6.10096e-06 	-3.61159e-07 30.0002 	-1.81897e-07 	-8.03788e-07 30.0003 	-6.12501e-06 	-4.01356e-07 30.0003 	-6.12501e-06 	-4.01356e-07 30.0003 	-6.12501e-06 	-4.01356e-07 30.0003 	-6.12501e-06 	-4.01356e-07 30.0001 	-1.8245e-07 	-8.53108e-07 30.0003 	-6.14843e-06 	-4.40351e-07 30.0003 	-6.14843e-06 	-4.40351e-07 30.0003 	-6.14843e-06 	-4.40351e-07 30.0003 	-6.14842e-06 	-4.40351e-07 30.0001 	-1.82991e-07 	-9.00318e-07 30.0003 	-6.17109e-06 	-4.77967e-07 30.0003 	-6.17109e-06 	-4.77967e-07 30.0003 	-6.17109e-06 	-4.77967e-07 30.0003 	-6.17109e-06 	-4.77967e-07 30.0001 	-2.90922e-06 	-7.31456e-07 30.0003 	-6.19289e-06 	-5.14183e-07 30.0003 	-6.19289e-06 	-5.14183e-07 30.0003 	-6.19289e-06 	-5.14183e-07 30.0003 	-6.19289e-06 	-5.14183e-07 30.0001 	-2.9471e-06 	-7.75584e-07 30.0003 	-6.21381e-06 	-5.48809e-07 30.0003 	-6.21381e-06 	-5.48809e-07 30.0003 	-6.21381e-06 	-5.48808e-07 30.0003 	-6.2138e-06 	-5.48808e-07 30.0001 	-1.84522e-07 	-1.02953e-06 30.0003 	-6.23392e-06 	-5.82025e-07 30.0003 	-6.23392e-06 	-5.82025e-07 30.0003 	-6.23391e-06 	-5.82025e-07 30.0003 	-6.23391e-06 	-5.82025e-07 30.0001 	-3.0201e-06 	-8.57472e-07 30.0003 	-6.2532e-06 	-6.13865e-07 30.0003 	-6.2532e-06 	-6.13865e-07 30.0003 	-6.2532e-06 	-6.13864e-07 30.0003 	-6.25319e-06 	-6.13864e-07 30.0001 	-3.0552e-06 	-8.95482e-07 30.0003 	-6.27169e-06 	-6.44391e-07 30.0003 	-6.27169e-06 	-6.44391e-07 30.0003 	-6.27169e-06 	-6.44391e-07 30.0003 	-6.27169e-06 	-6.44391e-07 30.0001 	-1.85956e-07 	-1.14085e-06 30.0003 	-6.28942e-06 	-6.7359e-07 30.0003 	-6.28941e-06 	-6.7359e-07 30.0003 	-6.28941e-06 	-6.7359e-07 30.0003 	-6.28941e-06 	-6.73589e-07 30.0001 	-1.86408e-07 	-1.17461e-06 30.0003 	-6.30645e-06 	-7.01407e-07 30.0003 	-6.30645e-06 	-7.01407e-07 30.0003 	-6.30645e-06 	-7.01406e-07 30.0003 	-6.30644e-06 	-7.01406e-07 30.0001 	-1.8686e-07 	-1.20669e-06 30.0003 	-6.32254e-06 	-7.27833e-07 30.0003 	-6.32254e-06 	-7.27833e-07 30.0003 	-6.32254e-06 	-7.27833e-07 30.0003 	-6.32254e-06 	-7.27833e-07 30.0001 	-3.18666e-06 	-1.031e-06 30.0003 	-6.33781e-06 	-7.52947e-07 30.0003 	-6.33781e-06 	-7.52946e-07 30.0003 	-6.33781e-06 	-7.52946e-07 30.0003 	-6.33781e-06 	-7.52946e-07 30.0001 	-1.87729e-07 	-1.26598e-06 30.0003 	-6.35233e-06 	-7.76916e-07 30.0003 	-6.35233e-06 	-7.76916e-07 30.0003 	-6.35233e-06 	-7.76916e-07 30.0003 	-6.35233e-06 	-7.76915e-07 30.0001 	-1.88142e-07 	-1.29333e-06 30.0003 	-6.36615e-06 	-7.99786e-07 30.0003 	-6.36615e-06 	-7.99786e-07 30.0003 	-6.36615e-06 	-7.99786e-07 30.0003 	-6.36614e-06 	-7.99785e-07 30.0001 	-3.27607e-06 	-1.11605e-06 30.0003 	-6.37924e-06 	-8.21512e-07 30.0003 	-6.37924e-06 	-8.21511e-07 30.0003 	-6.37924e-06 	-8.21511e-07 30.0003 	-6.37923e-06 	-8.21511e-07 30.0001 	-3.30418e-06 	-1.14153e-06 30.0003 	-6.39154e-06 	-8.41951e-07 30.0003 	-6.39154e-06 	-8.41951e-07 30.0003 	-6.39154e-06 	-8.4195e-07 30.0003 	-6.39154e-06 	-8.4195e-07 30.0001 	-1.89347e-07 	-1.36688e-06 30.0003 	-6.40318e-06 	-8.61343e-07 30.0003 	-6.40318e-06 	-8.61342e-07 30.0003 	-6.40318e-06 	-8.61342e-07 30.0003 	-6.40317e-06 	-8.61342e-07 30.0001 	-1.89734e-07 	-1.38875e-06 30.0003 	-6.41413e-06 	-8.79781e-07 30.0003 	-6.41413e-06 	-8.79781e-07 30.0003 	-6.41413e-06 	-8.7978e-07 30.0003 	-6.41413e-06 	-8.7978e-07 30.0001 	-1.90115e-07 	-1.4094e-06 30.0003 	-6.42438e-06 	-8.97262e-07 30.0003 	-6.42438e-06 	-8.97261e-07 30.0003 	-6.42438e-06 	-8.97261e-07 30.0003 	-6.42438e-06 	-8.97261e-07 30.0001 	-3.40851e-06 	-1.23053e-06 30.0003 	-6.43396e-06 	-9.13847e-07 30.0003 	-6.43396e-06 	-9.13847e-07 30.0003 	-6.43396e-06 	-9.13847e-07 30.0003 	-6.43396e-06 	-9.13846e-07 30.0001 	-3.43264e-06 	-1.24986e-06 30.0003 	-6.44285e-06 	-9.29536e-07 30.0003 	-6.44284e-06 	-9.29536e-07 30.0003 	-6.44284e-06 	-9.29535e-07 30.0003 	-6.44284e-06 	-9.29535e-07 30.0001 	-1.91198e-07 	-1.46457e-06 30.0003 	-6.45112e-06 	-9.4439e-07 30.0003 	-6.45112e-06 	-9.4439e-07 30.0003 	-6.45112e-06 	-9.4439e-07 30.0003 	-6.45111e-06 	-9.44389e-07 30.0001 	-3.47871e-06 	-1.28535e-06 30.0003 	-6.4588e-06 	-9.58393e-07 30.0003 	-6.4588e-06 	-9.58392e-07 30.0003 	-6.45879e-06 	-9.58392e-07 30.0003 	-6.45879e-06 	-9.58392e-07 30.0001 	-3.50076e-06 	-1.30162e-06 30.0003 	-6.46588e-06 	-9.71688e-07 30.0003 	-6.46588e-06 	-9.71688e-07 30.0003 	-6.46588e-06 	-9.71687e-07 30.0003 	-6.46587e-06 	-9.71687e-07 30.0001 	-1.