# vtk DataFile Version 2.0
track0
ASCII
DATASET POLYDATA
POINTS 13460 float
-1.001 -0.05 0.0011
-1.00088 -0.05 0.0011
-1.00076 -0.05 0.0011
-1.00064 -0.05 0.0011
-1.00052 -0.05 0.00109999
-1.0004 -0.05 0.00109999
-0.975398 -0.0499999 0.00109967
-0.9504 -0.0499997 0.00109924
-0.925402 -0.0499996 0.0010988
-0.900404 -0.0499995 0.00109837
-0.875406 -0.0499993 0.00109793
-0.850407 -0.0499993 0.00109772
-0.825407 -0.0499995 0.00109773
-0.800408 -0.0499997 0.00109775
-0.775408 -0.0499999 0.00109776
-0.750409 -0.0500001 0.00109777
-0.737914 -0.0500001 0.00109757
-0.72542 -0.0500001 0.00109735
-0.712925 -0.05 0.00109712
-0.700431 -0.05 0.00109689
-0.687936 -0.0499999 0.00109667
-0.675431 -0.0499999 0.00109639
-0.662926 -0.0499998 0.00109605
-0.65042 -0.0499997 0.00109572
-0.637915 -0.0499997 0.00109538
-0.62541 -0.0499996 0.00109504
-0.612898 -0.0499996 0.00109464
-0.600387 -0.0499994 0.0010942
-0.587876 -0.0499993 0.00109376
-0.575365 -0.0499992 0.00109332
-0.562854 -0.0499991 0.00109287
-0.550338 -0.0499991 0.00109238
-0.537822 -0.049999 0.00109185
-0.525307 -0.0499988 0.00109132
-0.512791 -0.0499987 0.00109079
-0.500275 -0.0499986 0.00109027
-0.487751 -0.0499984 0.0010897
-0.475226 -0.0499983 0.00108915
-0.462702 -0.0499981 0.00108859
-0.450177 -0.049998 0.00108804
-0.437652 -0.0499978 0.00108749
-0.42513 -0.0499978 0.00108694
-0.412607 -0.0499976 0.00108644
-0.400084 -0.0499974 0.00108595
-0.387562 -0.0499972 0.00108545
-0.375039 -0.0499971 0.00108495
-0.362534 -0.0499969 0.00108451
-0.350028 -0.0499967 0.00108418
-0.337522 -0.0499965 0.00108384
-0.325017 -0.0499962 0.0010835
-0.312511 -0.049996 0.00108316
-0.306259 -0.0499959 0.00108306
-0.300007 -0.0499955 0.00108299
-0.293755 -0.0499951 0.00108291
-0.287503 -0.0499946 0.00108283
-0.281251 -0.0499942 0.00108275
-0.275001 -0.0499939 0.0010827
-0.268751 -0.0499934 0.00108271
-0.2625 -0.0499929 0.00108272
-0.25625 -0.0499924 0.00108272
-0.25 -0.0499919 0.00108273
-0.24375 -0.0499917 0.00108278
-0.2375 -0.0499911 0.00108288
-0.23125 -0.0499904 0.00108299
-0.225 -0.0499898 0.00108309
-0.21875 -0.0499892 0.0010832
-0.2125 -0.0499888 0.00108335
-0.20625 -0.0499881 0.00108356
-0.2 -0.0499874 0.00108377
-0.19375 -0.0499867 0.00108398
-0.1875 -0.049986 0.00108419
-0.18125 -0.0499857 0.00108448
-0.175 -0.0499849 0.00108483
-0.16875 -0.0499841 0.00108518
-0.1625 -0.0499833 0.00108553
-0.15625 -0.0499825 0.00108589
-0.153125 -0.049982 0.0010861
-0.15 -0.049981 0.00108633
-0.146875 -0.04998 0.00108657
-0.14375 -0.0499789 0.0010868
-0.140625 -0.0499779 0.00108703
-0.1375 -0.0499772 0.00108727
-0.134374 -0.0499761 0.00108753
-0.131249 -0.049975 0.00108779
-0.128124 -0.0499739 0.00108805
-0.124999 -0.0499728 0.00108831
-0.121874 -0.0499723 0.0010886
-0.118749 -0.0499712 0.0010889
-0.115624 -0.04997 0.0010892
-0.112499 -0.0499689 0.0010895
-0.109374 -0.0499677 0.0010898
-0.106249 -0.049967 0.00109012
-0.103124 -0.0499658 0.00109046
-0.0999988 -0.0499646 0.0010908
-0.0968738 -0.0499634 0.00109114
-0.0937488 -0.0499622 0.00109149
-0.0906238 -0.0499617 0.00109185
-0.0874988 -0.0499604 0.00109223
-0.0843738 -0.0499592 0.00109261
-0.0812488 -0.0499579 0.001093
-0.0781238 -0.0499567 0.00109338
-0.0749988 -0.0499559 0.00109378
-0.0718738 -0.0499546 0.0010942
-0.0687488 -0.0499533 0.00109461
-0.0656238 -0.049952 0.00109503
-0.0624987 -0.0499507 0.00109545
-0.0593737 -0.0499502 0.00109589
-0.0562488 -0.0499488 0.00109634
-0.0531238 -0.0499475 0.00109679
-0.0499988 -0.0499461 0.00109724
-0.0468738 -0.0499448 0.00109769
-0.0437488 -0.049944 0.00109816
-0.0406238 -0.0499426 0.00109864
-0.0374988 -0.0499413 0.00109912
-0.0343738 -0.0499399 0.00109961
-0.0312487 -0.0499385 0.00110009
-0.0281238 -0.0499379 0.00110059
-0.0249988 -0.0499365 0.00110109
-0.0218739 -0.0499351 0.0011016
-0.0187489 -0.0499337 0.0011021
-0.0156239 -0.0499323 0.00110261
-0.0124989 -0.0499315 0.00110313
-0.00937387 -0.0499301 0.00110365
-0.00624883 -0.0499287 0.00110418
-0.00312379 -0.0499273 0.0011047
1.24344e-06 -0.0499258 0.00110523
0.00312627 -0.0499252 0.00110577
0.0062513 -0.0499238 0.00110631
0.00937633 -0.0499224 0.00110686
0.0125014 -0.0499209 0.0011074
0.0156264 -0.0499195 0.00110795
0.0187516 -0.0499187 0.0011085
0.0218769 -0.0499172 0.00110907
0.0250021 -0.0499158 0.00110963
0.0281274 -0.0499143 0.00111019
0.0312526 -0.0499128 0.00111075
0.0343793 -0.0499122 0.00111132
0.0375061 -0.0499107 0.0011119
0.0406328 -0.0499093 0.00111247
0.0437595 -0.0499078 0.00111304
0.0468862 -0.0499063 0.00111362
0.050011 -0.0499054 0.0011142
0.0531358 -0.0499039 0.00111478
0.0562606 -0.0499024 0.00111536
0.0593854 -0.0499009 0.00111594
0.0625102 -0.0498995 0.00111652
0.065635 -0.0498988 0.00111711
0.0687598 -0.0498973 0.0011177
0.0718846 -0.0498958 0.00111829
0.0750094 -0.0498943 0.00111888
0.0781343 -0.0498928 0.00111947
0.0812602 -0.0498919 0.00112006
0.084386 -0.0498903 0.00112066
0.0875119 -0.0498888 0.00112125
0.0906378 -0.0498873 0.00112184
0.0937637 -0.0498857 0.00112243
0.0968916 -0.0498851 0.00112302
0.10002 -0.0498835 0.00112361
0.103148 -0.049882 0.0011242
0.106275 -0.0498804 0.00112479
0.109403 -0.0498789 0.00112538
0.112529 -0.049878 0.00112596
0.115655 -0.0498764 0.00112654
0.118781 -0.0498749 0.00112711
0.121907 -0.0498733 0.00112768
0.125033 -0.0498718 0.00112826
0.128158 -0.0498711 0.00112884
0.131283 -0.0498695 0.0011294
0.134408 -0.049868 0.00112997
0.137533 -0.0498664 0.00113054
0.140658 -0.0498648 0.00113111
0.143784 -0.0498639 0.00113167
0.14691 -0.0498624 0.00113224
0.150035 -0.0498608 0.0011328
0.153161 -0.0498592 0.00113336
0.156287 -0.0498577 0.00113393
0.159414 -0.049857 0.00113448
0.162541 -0.0498554 0.00113504
0.165667 -0.0498539 0.00113559
0.168794 -0.0498523 0.00113614
0.171921 -0.0498508 0.00113669
0.175047 -0.0498499 0.00113724
0.178173 -0.0498483 0.00113777
0.181299 -0.0498467 0.00113831
0.184424 -0.0498452 0.00113885
0.18755 -0.0498436 0.00113938
0.190675 -0.049843 0.00113991
0.193799 -0.0498414 0.00114043
0.196923 -0.0498399 0.00114095
0.200048 -0.0498383 0.00114146
0.203172 -0.0498368 0.00114198
0.206297 -0.0498359 0.00114249
0.209421 -0.0498344 0.00114298
0.212545 -0.0498329 0.00114348
0.21567 -0.0498314 0.00114398
0.218794 -0.0498298 0.00114447
0.22192 -0.0498292 0.00114496
0.225045 -0.0498277 0.00114543
0.228171 -0.0498262 0.00114591
0.231296 -0.0498247 0.00114638
0.234422 -0.0498232 0.00114685
0.237548 -0.0498223 0.00114732
0.240674 -0.0498208 0.00114777
0.243801 -0.0498193 0.00114822
0.246927 -0.0498178 0.00114867
0.250054 -0.0498164 0.00114912
0.253181 -0.0498157 0.00114956
0.256307 -0.0498143 0.00114999
0.259434 -0.0498128 0.00115041
0.262561 -0.0498113 0.00115084
0.265688 -0.0498099 0.00115127
0.268813 -0.0498091 0.00115169
0.271938 -0.0498076 0.00115209
0.275063 -0.0498062 0.0011525
0.278188 -0.0498047 0.0011529
0.281313 -0.0498033 0.00115331
0.284436 -0.0498027 0.0011537
0.287559 -0.0498013 0.00115409
0.290682 -0.0497999 0.00115447
0.293805 -0.0497985 0.00115486
0.296927 -0.0497971 0.00115524
0.300051 -0.0497963 0.00115561
0.303174 -0.0497949 0.00115597
0.306298 -0.0497936 0.00115633
0.309421 -0.0497922 0.00115669
0.312544 -0.0497908 0.00115705
0.315669 -0.0497903 0.0011574
0.318793 -0.0497889 0.00115774
0.321918 -0.0497876 0.00115807
0.325042 -0.0497863 0.00115841
0.328166 -0.0497849 0.00115875
0.331291 -0.0497842 0.00115908
0.334416 -0.0497829 0.00115939
0.337541 -0.0497816 0.00115971
0.340666 -0.0497803 0.00116003
0.343791 -0.049779 0.00116034
0.346917 -0.0497784 0.00116065
0.350043 -0.0497772 0.00116094
0.353169 -0.0497759 0.00116124
0.356294 -0.0497746 0.00116154
0.35942 -0.0497734 0.00116183
0.36255 -0.0497726 0.00116212
0.36568 -0.0497714 0.0011624
0.368809 -0.0497702 0.00116267
0.371939 -0.0497689 0.00116295
0.375068 -0.0497677 0.00116323
0.378206 -0.0497672 0.00116349
0.381344 -0.049766 0.00116375
0.384482 -0.0497648 0.001164
0.38762 -0.0497636 0.00116426
0.390757 -0.0497624 0.00116452
0.39389 -0.0497617 0.00116476
0.397023 -0.0497605 0.00116501
0.400156 -0.0497594 0.00116525
0.403289 -0.0497582 0.00116549
0.406422 -0.049757 0.00116573
0.409552 -0.0497565 0.00116596
0.412683 -0.0497554 0.00116618
0.415814 -0.0497543 0.00116641
0.418944 -0.0497531 0.00116663
0.422075 -0.049752 0.00116685
0.425205 -0.0497514 0.00116706
0.428335 -0.0497503 0.00116727
0.431465 -0.0497492 0.00116747
0.434595 -0.0497481 0.00116767
0.437725 -0.049747 0.00116788
0.440855 -0.0497465 0.00116807
0.443985 -0.0497455 0.00116826
0.447115 -0.0497444 0.00116844
0.450245 -0.0497433 0.00116863
0.453375 -0.0497423 0.00116881
0.456505 -0.0497417 0.00116899
0.459634 -0.0497407 0.00116916
0.462764 -0.0497396 0.00116932
0.465894 -0.0497386 0.00116949
0.469023 -0.0497376 0.00116966
0.472153 -0.0497371 0.00116982
0.475282 -0.0497361 0.00116997
0.478412 -0.0497351 0.00117012
0.481541 -0.0497341 0.00117028
0.484671 -0.0497331 0.00117043
0.4878 -0.0497326 0.00117057
0.490929 -0.0497316 0.00117071
0.494059 -0.0497306 0.00117085
0.497188 -0.0497297 0.00117098
0.500317 -0.0497287 0.00117112
0.503446 -0.0497283 0.00117125
0.506575 -0.0497274 0.00117137
0.509704 -0.0497264 0.00117149
0.512833 -0.0497255 0.00117161
0.515962 -0.0497246 0.00117174
0.519091 -0.049724 0.00117185
0.52222 -0.0497231 0.00117196
0.525349 -0.0497222 0.00117207
0.528478 -0.0497213 0.00117218
0.531606 -0.0497204 0.00117229
0.534735 -0.0497201 0.00117239
0.537863 -0.0497192 0.00117249
0.540992 -0.0497183 0.00117258
0.544121 -0.0497175 0.00117268
0.547249 -0.0497166 0.00117278
0.550378 -0.0497161 0.00117287
0.553506 -0.0497153 0.00117295
0.556634 -0.0497144 0.00117304
0.559763 -0.0497136 0.00117312
0.562891 -0.0497128 0.00117321
0.566019 -0.0497124 0.00117329
0.569147 -0.0497116 0.00117336
0.572276 -0.0497108 0.00117343
0.575404 -0.04971 0.00117351
0.578532 -0.0497092 0.00117358
0.58166 -0.0497087 0.00117365
0.584788 -0.0497079 0.00117371
0.587916 -0.0497072 0.00117377
0.591044 -0.0497064 0.00117384
0.594172 -0.0497056 0.0011739
0.5973 -0.0497053 0.00117396
0.600427 -0.0497045 0.00117401
0.603555 -0.0497038 0.00117407
0.606683 -0.049703 0.00117412
[...]
POINT_DATA 13460
 FIELD attributes 1
U 3 13460 float
25.0004 	7.8936e-05 	-0.00027156 25.0003 	8.57695e-05 	-0.000280931 25.0003 	9.2603e-05 	-0.000290301 25.0002 	9.94366e-05 	-0.000299672 25.0002 	0.00010627 	-0.000309042 25.0001 	0.000113104 	-0.000318412 25.0014 	0.000141785 	-0.00043642 25.0014 	0.000141729 	-0.000436247 25.0014 	0.000141673 	-0.000436074 25.0014 	0.000141616 	-0.000435901 25.0008 	2.94852e-05 	-0.000207688 25.0016 	-0.000206614 	1.12936e-05 25.0016 	-0.000206616 	1.12938e-05 25.0016 	-0.000206618 	1.12939e-05 25.0016 	-0.00020662 	1.1294e-05 25.0016 	-9.51268e-06 	-0.000390085 25.0033 	9.62299e-05 	-0.000452719 25.0033 	9.621e-05 	-0.000452626 25.0033 	9.61902e-05 	-0.000452533 25.0033 	9.61704e-05 	-0.000452439 25.0019 	7.84487e-05 	-0.000555471 25.0045 	0.000141428 	-0.000673836 25.0045 	0.000141385 	-0.000673629 25.0045 	0.000141342 	-0.000673422 25.0045 	0.000141298 	-0.000673215 25.0026 	0.000107842 	-0.000807148 25.0063 	0.000205357 	-0.000882278 25.0063 	0.000205274 	-0.000881922 25.0063 	0.000205191 	-0.000881567 25.0063 	0.000205108 	-0.000881211 25.0036 	9.38095e-05 	-0.000982896 25.0086 	0.000270373 	-0.00105843 25.0086 	0.000270242 	-0.00105792 25.0085 	0.000270111 	-0.00105741 25.0085 	0.00026998 	-0.00105689 25.0049 	0.000208169 	-0.00113357 25.0113 	0.000308566 	-0.00110132 25.0113 	0.00030841 	-0.00110077 25.0113 	0.000308254 	-0.00110021 25.0113 	0.000308098 	-0.00109965 25.0064 	8.57726e-05 	-0.00111055 25.0141 	0.000359186 	-0.000990842 25.0141 	0.000359022 	-0.00099039 25.0141 	0.000358858 	-0.000989938 25.0141 	0.000358695 	-0.000989486 25.0078 	0.000343839 	-0.000880393 25.0167 	0.000446681 	-0.000676939 25.0167 	0.000446542 	-0.000676727 25.0167 	0.000446403 	-0.000676516 25.0167 	0.000446263 	-0.000676305 25.0182 	0.000555553 	-0.000393155 25.0367 	0.00162612 	-0.000309822 25.0367 	0.001626 	-0.0003098 25.0367 	0.00162589 	-0.000309777 25.0367 	0.00162577 	-0.000309755 25.0189 	0.00129753 	-0.0002094 25.0387 	0.00205686 	3.20729e-05 25.0387 	0.00205687 	3.20731e-05 25.0387 	0.00205689 	3.20734e-05 25.0387 	0.0020569 	3.20736e-05 25.02 	0.000744901 	0.000189845 25.0404 	0.00245993 	0.000416586 25.0404 	0.00246016 	0.000416626 25.0404 	0.0024604 	0.000416666 25.0404 	0.00246063 	0.000416706 25.0205 	0.00180063 	0.000605537 25.0414 	0.00282537 	0.000839542 25.0414 	0.00282591 	0.000839705 25.0414 	0.00282646 	0.000839867 25.0414 	0.00282701 	0.00084003 25.0211 	0.00100301 	0.00117492 25.0415 	0.00322127 	0.00140862 25.0415 	0.00322231 	0.00140908 25.0415 	0.00322336 	0.00140953 25.0416 	0.0032244 	0.00140999 25.0413 	0.00351638 	0.00174222 25.0824 	0.00838413 	0.00185096 25.0824 	0.00838591 	0.00185136 25.0824 	0.00838769 	0.00185175 25.0824 	0.00838947 	0.00185214 25.041 	0.00493115 	0.00196506 25.0816 	0.00888097 	0.00208282 25.0817 	0.00888309 	0.00208332 25.0817 	0.00888521 	0.00208382 25.0817 	0.00888733 	0.00208432 25.0407 	0.0038978 	0.00229145 25.0802 	0.00927117 	0.00240585 25.0802 	0.00927372 	0.00240651 25.0803 	0.00927628 	0.00240717 25.0803 	0.00927883 	0.00240784 25.0397 	0.0054208 	0.00258694 25.0784 	0.00969438 	0.00274364 25.0784 	0.00969742 	0.0027445 25.0784 	0.00970046 	0.00274536 25.0784 	0.0097035 	0.00274622 25.0388 	0.00421108 	0.00290613 25.0759 	0.0100671 	0.00306989 25.0759 	0.0100706 	0.00307097 25.0759 	0.0100741 	0.00307204 25.0759 	0.0100776 	0.00307312 25.0372 	0.00585602 	0.00319106 25.0728 	0.0104337 	0.00334989 25.0729 	0.0104377 	0.00335117 25.0729 	0.0104417 	0.00335245 25.0729 	0.0104456 	0.00335373 25.0358 	0.00452417 	0.00349654 25.0696 	0.0107722 	0.00362104 25.0696 	0.0107766 	0.00362253 25.0696 	0.0107811 	0.00362402 25.0697 	0.0107855 	0.00362551 25.0339 	0.00623259 	0.00372995 25.0659 	0.0110168 	0.00387266 25.0659 	0.0110217 	0.00387436 25.066 	0.0110265 	0.00387606 25.066 	0.0110314 	0.00387777 25.0321 	0.00472472 	0.00397156 25.0618 	0.0112214 	0.00404998 25.0618 	0.0112265 	0.00405184 25.0619 	0.0112317 	0.0040537 25.0619 	0.0112368 	0.00405556 25.0298 	0.00648911 	0.00415086 25.0574 	0.0113331 	0.00420548 25.0574 	0.0113384 	0.00420748 25.0575 	0.0113438 	0.00420948 25.0575 	0.0113492 	0.00421149 25.0276 	0.00486698 	0.00435143 25.0527 	0.0114874 	0.00436696 25.0527 	0.011493 	0.00436911 25.0527 	0.0114987 	0.00437126 25.0528 	0.0115044 	0.00437341 25.0251 	0.00669264 	0.00443832 25.0477 	0.0116706 	0.00449921 25.0477 	0.0116765 	0.00450148 25.0478 	0.0116824 	0.00450376 25.0478 	0.0116883 	0.00450605 25.0227 	0.00497867 	0.00456527 25.0426 	0.0118485 	0.00459674 25.0426 	0.0118546 	0.00459912 25.0426 	0.0118607 	0.00460149 25.0426 	0.0118668 	0.00460387 25.02 	0.00688844 	0.00461705 25.0373 	0.0119706 	0.00466056 25.0373 	0.0119768 	0.00466299 25.0374 	0.0119831 	0.00466543 25.0374 	0.0119894 	0.00466786 25.0174 	0.00512113 	0.00472223 25.032 	0.0121242 	0.00472297 25.032 	0.0121306 	0.00472547 25.0321 	0.012137 	0.00472796 25.0321 	0.0121434 	0.00473045 25.0147 	0.00704944 	0.00471729 25.0266 	0.0122629 	0.00473704 25.0266 	0.0122694 	0.00473955 25.0267 	0.0122758 	0.00474205 25.0267 	0.0122823 	0.00474456 25.012 	0.00522606 	0.00473321 25.0213 	0.0123765 	0.00470314 25.0213 	0.012383 	0.0047056 25.0213 	0.0123895 	0.00470807 25.0213 	0.012396 	0.00471053 25.0093 	0.00717063 	0.00467971 25.016 	0.0124513 	0.00458635 25.016 	0.0124576 	0.00458869 25.016 	0.012464 	0.00459102 25.016 	0.0124703 	0.00459336 25.0066 	0.00531659 	0.00464552 25.0107 	0.0125143 	0.00453455 25.0107 	0.0125206 	0.00453683 25.0107 	0.0125269 	0.00453911 25.0107 	0.0125332 	0.00454138 25.004 	0.00721972 	0.00455145 25.0055 	0.0125326 	0.00449806 25.0056 	0.0125388 	0.00450029 25.0056 	0.012545 	0.00450253 25.0056 	0.0125513 	0.00450476 25.0015 	0.00531572 	0.00447417 25.0006 	0.0124936 	0.00440959 25.0006 	0.0124997 	0.00441174 25.0006 	0.0125058 	0.00441388 25.0006 	0.0125119 	0.00441603 24.999 	0.0071685 	0.0043444 24.9957 	0.0124399 	0.00428744 24.9957 	0.0124458 	0.00428947 24.9957 	0.0124516 	0.00429149 24.9957 	0.0124575 	0.00429351 24.9966 	0.00528081 	0.00422777 24.9912 	0.0123173 	0.00413859 24.9912 	0.0123229 	0.00414047 24.9911 	0.0123285 	0.00414235 24.9911 	0.0123341 	0.00414423 24.9945 	0.00702074 	0.00403676 24.9868 	0.0121649 	0.00396946 24.9868 	0.0121702 	0.00397119 24.9868 	0.0121755 	0.00397291 24.9868 	0.0121808 	0.00397464 24.9923 	0.00516093 	0.00388263 24.9829 	0.0120398 	0.00378361 24.9829 	0.0120448 	0.00378518 24.9829 	0.0120498 	0.00378674 24.9829 	0.0120548 	0.00378831 24.9905 	0.00682576 	0.00370397 24.9794 	0.0118837 	0.00359437 24.9794 	0.0118884 	0.00359577 24.9794 	0.011893 	0.00359718 24.9794 	0.0118977 	0.00359859 24.9887 	0.00504568 	0.00354188 24.9761 	0.0116716 	0.00340845 24.9761 	0.011676 	0.00340971 24.9761 	0.0116803 	0.00341098 24.976 	0.0116847 	0.00341224 24.9872 	0.00661925 	0.00333717 24.9728 	0.0114555 	0.00324127 24.9728 	0.0114595 	0.00324241 24.9728 	0.0114635 	0.00324356 24.9727 	0.0114676 	0.0032447 24.9855 	0.00484388 	0.00317197 24.9698 	0.0111982 	0.00306659 24.9698 	0.0112019 	0.00306761 24.9698 	0.0112056 	0.00306863 24.9697 	0.0112093 	0.00306965 24.9842 	0.00634704 	0.00297122 24.967 	0.0109429 	0.00287225 24.967 	0.0109463 	0.00287314 24.967 	0.0109497 	0.00287403 24.967 	0.0109531 	0.00287493 24.9828 	0.00460584 	0.00279192 24.9646 	0.0106532 	0.00270062 24.9646 	0.0106563 	0.00270141 24.9646 	0.0106595 	0.0027022 24.9646 	0.0106626 	0.00270299 24.9818 	0.00602771 	0.00260492 24.9625 	0.0103756 	0.00252608 24.9625 	0.0103784 	0.00252677 24.9625 	0.0103813 	0.00252746 24.9625 	0.0103841 	0.00252815 24.9807 	0.00437299 	0.00243649 24.9607 	0.010113 	0.00236844 24.9607 	0.0101156 	0.00236904 24.9607 	0.0101182 	0.00236965 24.9607 	0.0101208 	0.00237025 24.98 	0.00570125 	0.00228291 24.9592 	0.0098465 	0.00220293 24.9592 	0.00984884 	0.00220346 24.9592 	0.00985118 	0.00220398 24.9592 	0.00985352 	0.00220451 24.9792 	0.00416765 	0.00213216 24.958 	0.00956401 	0.00203436 24.9579 	0.00956611 	0.00203481 24.9579 	0.00956822 	0.00203525 24.9579 	0.00957032 	0.0020357 24.9787 	0.00537278 	0.00197466 24.957 	0.00928573 	0.00192858 24.957 	0.00928766 	0.00192898 24.957 	0.00928959 	0.00192938 24.9569 	0.00929152 	0.00192978 24.9781 	0.00391648 	0.00181963 24.9561 	0.00900714 	0.00177087 24.9561 	0.00900885 	0.00177121 24.9561 	0.00901057 	0.00177154 24.9561 	0.00901229 	0.00177188 24.9779 	0.0050538 	0.00167982 24.9554 	0.00873703 	0.00163258 24.9554 	0.00873857 	0.00163287 24.9554 	0.0087401 	0.00163316 24.9554 	0.00874163 	0.00163344 24.9774 	0.00368938 	0.00153995 24.9548 	0.00846473 	0.0014763 24.9548 	0.00846607 	0.00147654 24.9548 	0.00846741 	0.00147677 24.9548 	0.00846876 	0.00147701 24.9773 	0.00475906 	0.00140054 24.9543 	0.00821124 	0.00133886 24.9543 	0.00821242 	0.00133905 24.9543 	0.0082136 	0.00133924 24.9543 	0.00821478 	0.00133944 24.9769 	0.00347687 	0.00127269 24.9539 	0.00796129 	0.00121511 24.9539 	0.00796233 	0.00121527 24.9539 	0.00796336 	0.00121543 24.9539 	0.0079644 	0.00121559 24.9769 	0.00446177 	0.00114353 24.9537 	0.00770627 	0.00108976 24.9537 	0.00770716 	0.00108989 24.9537 	0.00770806 	0.00109002 24.9537 	0.00770896 	0.00109015 24.9767 	0.00326408 	0.00102842 24.9537 	0.00744702 	0.000973134 24.9537 	0.00744779 	0.000973235 24.9537 	0.00744857 	0.000973336 24.9537 	0.00744935 	0.000973438 24.9769 	0.00416089 	0.000913527 24.9539 	0.00719103 	0.000870688 24.9539 	0.0071917 	0.000870769 24.9538 	0.00719237 	0.00087085 24.9538 	0.00719304 	0.000870931 24.9769 	0.00304268 	0.000817268 24.9542 	0.00693161 	0.000770478 24.9542 	0.00693218 	0.000770541 24.9541 	0.00693275 	0.000770605 24.9541 	0.00693332 	0.000770668 24.9772 	0.00388308 	0.000713101 24.9546 	0.00666541 	0.000681794 24.9545 	0.00666589 	0.000681843 24.9545 	0.00666638 	0.000681893 24.9545 	0.00666686 	0.000681943 24.9773 	0.00282166 	0.000634423 24.955 	0.00643752 	0.000580403 24.955 	0.00643792 	0.000580439 24.955 	0.00643832 	0.000580475 24.955 	0.00643871 	0.000580511 24.9776 	0.00363556 	0.000542265 24.9555 	0.00622651 	0.000502235 24.9555 	0.00622684 	0.000502262 24.9555 	0.00622718 	0.000502289 24.9555 	0.00622751 	0.000502316 24.9778 	0.00263375 	0.000480711 24.956 	0.00598865 	0.000440663 24.956 	0.00598893 	0.000440683 24.956 	0.00598921 	0.000440704 24.956 	0.0059895 	0.000440725 24.9782 	0.00338997 	0.00039617 24.9567 	0.00575583 	0.000412637 24.9567 	0.00575609 	0.000412655 24.9566 	0.00575634 	0.000412673 24.9566 	0.00575659 	0.000412691 24.9784 	0.0024684 	0.000350589 24.9573 	0.00566626 	0.000288877 24.9573 	0.00566644 	0.000288886 24.9573 	0.00566661 	0.000288895 24.9573 	0.00566679 	0.000288904 24.9789 	0.00319138 	0.000295444 24.958 	0.0055155 	0.000285131 24.958 	0.00551567 	0.00028514 24.958 	0.00551584 	0.000285148 24.958 	0.00551601 	0.000285157 24.9792 	0.00235548 	0.000260163 24.9589 	0.00537181 	0.000236259 24.9589 	0.00537194 	0.000236265 24.9589 	0.00537208 	0.000236271 24.9589 	0.00537221 	0.000236277 24.9797 	0.00300975 	0.000225514 24.9598 	0.00522631 	0.000211257 24.9598 	0.00522643 	0.000211262 24.9598 	0.00522655 	0.000211267 24.9598 	0.00522667 	0.000211272 24.9801 	0.00223607 	0.000194571 24.9607 	0.00509356 	0.000193533 24.9607 	0.00509366 	0.000193537 24.9607 	0.00509377 	0.000193541 24.9607 	0.00509387 	0.000193545 24.9806 	0.00283553 	0.000171741 24.9616 	0.0049479 	0.000159135 24.9616 	0.00494799 	0.000159137 24.9616 	0.00494807 	0.00015914 24.9616 	0.00494816 	0.000159143 24.981 	0.00212561 	0.000135229 24.9626 	0.00480804 	0.000132 24.9626 	0.00480811 	0.000132002 24.9626 	0.00480818 	0.000132004 24.9626 	0.00480824 	0.000132006 24.9816 	0.00266807 	0.000102703 24.9636 	0.0046749 	9.59824e-05 24.9636 	0.00467495 	9.59833e-05 24.9636 	0.004675 	9.59843e-05 24.9636 	0.00467505 	9.59853e-05 24.982 	0.0020146 	5.9695e-05 24.9646 	0.00455419 	5.87139e-05 24.9646 	0.00455422 	5.87143e-05 24.9646 	0.00455425 	5.87147e-05 24.9646 	0.00455428 	5.8715e-05 24.9825 	0.00252288 	2.80489e-05 24.9655 	0.00441667 	1.19415e-05 24.9655 	0.00441667 	1.19415e-05 24.9655 	0.00441668 	1.19416e-05 24.9655 	0.00441669 	1.19416e-05 24.9829 	0.00190046 	-4.47899e-06 24.9663 	0.00425669 	-4.03047e-05 24.9663 	0.00425667 	-4.03046e-05 24.9663 	0.00425666 	-4.03044e-05 24.9663 	0.00425664 	-4.03042e-05 24.9834 	0.0023692 	-3.91242e-05 24.9672 	0.00409798 	-7.54923e-05 24.9672 	0.00409794 	-7.54917e-05 24.9672 	0.00409791 	-7.54911e-05 24.9672 	0.00409788 	-7.54904e-05 24.9837 	0.00172734 	-8.27225e-05 24.9679 	0.00391092 	-9.64037e-05 24.9679 	0.00391088 	-9.64027e-05 24.9679 	0.00391084 	-9.64017e-05 24.9679 	0.0039108 	-9.64008e-05 24.9842 	0.00219046 	-8.50991e-05 24.9689 	0.00376316 	-0.000104823 24.9689 	0.00376311 	-0.000104822 24.9689 	0.00376307 	-0.000104821 24.9689 	0.00376303 	-0.00010482 24.9847 	0.00160538 	-0.000101253 24.9698 	0.00363885 	-8.30013e-05 24.9698 	0.00363882 	-8.30006e-05 24.9698 	0.00363878 	-8.29999e-05 24.9698 	0.00363875 	-8.29991e-05 24.9851 	0.00205051 	-0.000100471 24.9707 	0.00357977 	-7.4383e-05 24.9707 	0.00357974 	-7.43824e-05 24.9707 	0.00357971 	-7.43818e-05 24.9707 	0.00357969 	-7.43813e-05 24.9856 	0.0015465 	-0.000115391 24.9717 	0.00353942 	-4.21632e-05 24.9717 	0.0035394 	-4.2163e-05 24.9717 	0.00353939 	-4.21628e-05 24.9717 	0.00353937 	-4.21626e-05 24.986 	0.0019885 	-0.000127381 24.9726 	0.00351581 	-0.000167206 24.9726 	0.00351575 	-0.000167203 24.9726 	0.00351569 	-0.0001672 24.9726 	0.00351562 	-0.000167197 24.9864 	0.00151064 	-0.00014365 24.9733 	0.00338788 	-0.0001935 24.9733 	0.00338781 	-0.000193496 24.9733 	0.00338774 	-0.000193492 24.9733 	0.00338767 	-0.000193488 24.9868 	0.00188717 	-0.000155532 24.9739 	0.00326122 	-0.000204846 24.9739 	0.00326115 	-0.000204841 24.9739 	0.00326107 	-0.000204837 24.9739 	0.003261 	-0.000204832 24.987 	0.00134089 	-0.000155101 24.9744 	0.0029834 	-0.000108349 24.9744 	0.00298337 	-0.000108348 24.9744 	0.00298333 	-0.000108347 24.9744 	0.0029833 	-0.000108346 24.9875 	0.0016464 	-0.000135016 24.975 	0.0027742 	-0.000117763 24.975 	0.00277417 	-0.000117761 24.975 	0.00277414 	-0.00011776 24.975 	0.0027741 	-0.000117758 24.9877 	0.00119485 	-0.000102806 24.9753 	0.00261359 	-7.2026e-05 24.9753 	0.00261357 	-7.20254e-05 24.9753 	0.00261355 	-7.20248e-05 24.9753 	0.00261353 	-7.20243e-05 24.9878 	0.00134903 	-4.11605e-05 24.9743 	0.00265991 	0.000119747 24.9743 	0.00265994 	0.000119749 24.9743 	0.00265997 	0.00011975 24.9743 	0.00266001 	0.000119752 24.988 	0.00121846 	-4.937e-05 24.9886 	0.00102435 	-0.000194877 24.9886 	0.0010243 	-0.000194869 24.9886 	0.00102426 	-0.000194861 24.9886 	0.00102422 	-0.000194853 24.9947 	0.00064077 	-0.000167074 24.9896 	0.000916284 	-0.00014658 24.9896 	0.000916256 	-0.000146575 24.9896 	0.000916227 	-0.000146571 24.9896 	0.000916198 	-0.000146566 24.995 	0.000289753 	-0.000158061 24.9903 	0.000825008 	-0.000117816 24.9903 	0.000824988 	-0.000117813 24.9903 	0.000824967 	-0.00011781 24.9903 	0.000824946 	-0.000117807 24.9954 	0.000522487 	-0.000143775 24.9911 	0.000684996 	-0.000141471 24.9911 	0.000684975 	-0.000141467 24.9911 	0.000684955 	-0.000141463 24.9911 	0.000684934 	-0.000141458 24.9956 	0.000229511 	-0.00014459 24.996 	0.000254022 	-0.000157542 24.996 	0.000254005 	-0.000157531 24.996 	0.000253988 	-0.000157521 24.996 	0.000253971 	-0.00015751 24.9981 	1.46253e-05 	-0.000150711 24.9966 	0.000207131 	-0.000133958 24.9966 	0.000207119 	-0.00013395 24.9966 	0.000207108 	-0.000133942 24.9966 	0.000207096 	-0.000133935 24.9984 	0.000188247 	-0.000132802 24.9971 	0.00018424 	-0.000124489 24.9971 	0.00018423 	-0.000124482 24.9971 	0.00018422 	-0.000124476 24.9971 	0.00018421 	-0.000124469 24.9987 	-6.73903e-09 	-0.000119239 24.9976 	0.000148948 	-0.000112474 24.9976 	0.000148941 	-0.000112469 24.9976 	0.000148934 	-0.000112464 24.9976 	0.000148927 	-0.000112458 24.9989 	0.00013413 	-0.000104991 24.9981 	0.000114667 	-0.000101187 24.9981 	0.000114662 	-0.000101182 24.9981 	0.000114657 	-0.000101178 24.9981 	0.000114652 	-0.000101173 24.9991 	-1.04528e-05 	-9.56472e-05 24.9984 	8.93409e-05 	-9.29183e-05 24.9984 	8.93374e-05 	-9.29147e-05 24.9984 	8.93338e-05 	-9.2911e-05 24.9984 	8.93303e-05 	-9.29073e-05 24.9992 	8.17721e-05 	-9.49819e-05 24.9994 	3.43438e-05 	-8.74678e-05 24.9994 	3.43412e-05 	-8.74612e-05 24.9994 	3.43387e-05 	-8.74547e-05 24.9994 	3.43361e-05 	-8.74482e-05 24.9997 	-3.46299e-06 	-8.12877e-05 24.9996 	2.79096e-05 	-7.46162e-05 24.9996 	2.79079e-05 	-7.46114e-05 24.9996 	2.79061e-05 	-7.46067e-05 24.9996 	2.79043e-05 	-7.46019e-05 24.9998 	3.11003e-05 	-6.72649e-05 24.9997 	3.43454e-05 	-6.54331e-05 24.9997 	3.43435e-05 	-6.54294e-05 24.9997 	3.43416e-05 	-6.54258e-05 24.9997 	3.43396e-05 	-6.54221e-05 24.9999 	-2.0211e-06 	-5.91388e-05 24.9998 	4.65845e-05 	-6.20371e-05 24.9998 	4.6582e-05 	-6.20338e-05 24.9998 	4.65796e-05 	-6.20305e-05 24.9998 	4.65771e-05 	-6.20272e-05 24.9999 	3.37366e-05 	-5.33918e-05 25 	7.58874e-06 	-4.15357e-05 25 	7.5882e-06 	-4.15328e-05 25 	7.58766e-06 	-4.15298e-05 25 	7.58712e-06 	-4.15269e-05 25 	1.92082e-06 	-3.48967e-05 25 	8.23434e-06 	-3.11615e-05 25 	8.2339e-06 	-3.11598e-05 25 	8.23347e-06 	-3.11581e-05 25 	8.23303e-06 	-3.11565e-05 25 	6.41382e-06 	-2.57127e-05 25.0001 	1.28294e-05 	-2.36251e-05 25.0001 	1.28289e-05 	-2.36242e-05 25.0001 	1.28284e-05 	-2.36232e-05 25.0001 	1.28278e-05 	-2.36223e-05 25 	1.97899e-06 	-2.01237e-05 25.0001 	1.49316e-05 	-2.04924e-05 25.0001 	1.4931e-05 	-2.04917e-05 25.0001 	1.49305e-05 	-2.0491e-05 25.0001 	1.493e-05 	-2.04902e-05 25.0001 	7.55327e-06 	-1.58061e-05 25.0001 	-4.726e-06 	-7.99933e-06 25.0001 	-4.72587e-06 	-7.99911e-06 25.0001 	-4.72574e-06 	-7.99889e-06 25.0001 	-4.72561e-06 	-7.99867e-06 25 	1.24723e-07 	-5.09058e-06 25.0001 	-4.60592e-06 	-4.30147e-06 25.0001 	-4.60585e-06 	-4.30141e-06 25.0001 	-4.60578e-06 	-4.30135e-06 25.0001 	-4.60572e-06 	-4.30128e-06 25 	-2.8075e-06 	-3.44493e-06 25.0001 	-9.64244e-07 	-3.24454e-06 25.0001 	-9.64233e-07 	-3.2445e-06 25.0001 	-9.64222e-07 	-3.24447e-06 25.0001 	-9.64211e-07 	-3.24443e-06 25 	-3.55473e-07 	-2.0199e-06 25.0001 	7.8277e-07 	-1.28951e-06 25.0001 	7.82766e-07 	-1.2895e-06 25.0001 	7.82763e-07 	-1.2895e-06 25.0001 	7.82759e-07 	-1.28949e-06 25 	8.20582e-07 	3.7322e-07 25 	-1.99469e-06 	7.08937e-06 25 	-1.99479e-06 	7.08971e-06 25 	-1.99488e-06 	7.09006e-06 25 	-1.99498e-06 	7.0904e-06 25 	-1.30358e-07 	7.59352e-06 25 	-2.371e-06 	5.86202e-06 25 	-2.3711e-06 	5.86225e-06 25 	-2.37119e-06 	5.86249e-06 25 	-2.37129e-06 	5.86272e-06 25 	-6.34153e-08 	4.0488e-06 25 	-1.40164e-06 	2.51322e-06 25 	-1.40166e-06 	2.51326e-06 25 	-1.40169e-06 	2.5133e-06 25 	-1.40171e-06 	2.51335e-06 25 	-2.23889e-08 	1.13696e-06 25 	-6.40558e-07 	4.46053e-07 25 	-6.4056e-07 	4.46054e-07 25 	-6.40562e-07 	4.46055e-07 25 	-6.40564e-07 	4.46057e-07 25 	2.15766e-09 	-1.95045e-07 25 	-2.40415e-07 	-4.06664e-07 25 	-2.40414e-07 	-4.06663e-07 25 	-2.40414e-07 	-4.06661e-07 25 	-2.40413e-07 	-4.0666e-07 25 	1.84778e-08 	-6.06654e-07 25 	-5.66758e-08 	-6.16391e-07 25 	-5.66756e-08 	-6.16388e-07 25 	-5.66753e-08 	-6.16386e-07 25 	-5.66751e-08 	-6.16383e-07 25 	2.8993e-08 	-6.18505e-07 25 	2.05346e-08 	-5.5816e-07 25 	2.05345e-08 	-5.58158e-07 25 	2.05344e-08 	-5.58156e-07 25 	2.05344e-08 	-5.58154e-07 25 	3.25727e-08 	-4.88936e-07 25 	4.2533e-08 	-4.10326e-07 25 	4.25329e-08 	-4.10325e-07 25 	4.25328e-08 	-4.10324e-07 25 	4.25327e-08 	-4.10323e-07 25 	2.78965e-08 	-3.2387e-07 25 	3.1281e-08 	-2.43714e-07 25 	3.12809e-08 	-2.43713e-07 25 	3.12809e-08 	-2.43713e-07 25 	3.12808e-08 	-2.43713e-07 25 	1.53601e-08 	-1.58833e-07 24.9999 	7.42286e-07 	-3.47219e-06 24.9997 	1.35866e-06 	-6.88444e-06 24.9996 	1.97504e-06 	-1.02967e-05 24.9994 	2.59141e-06 	-1.37089e-05 24.9993 	5.27375e-06 	-1.71252e-05