# vtk DataFile Version 2.0
track0
ASCII
DATASET POLYDATA
POINTS 15815 float
-1.001 -0.05 0.0011
-1.0008 -0.05 0.0011
-1.0006 -0.05 0.0011
-1.0004 -0.05 0.00109999
-1.0002 -0.05 0.00109999
-1 -0.05 0.00109999
-0.9875 -0.0500001 0.00109986
-0.975 -0.0500003 0.00109981
-0.9625 -0.0500005 0.00109976
-0.95 -0.0500006 0.00109972
-0.9375 -0.0500008 0.00109967
-0.925 -0.0500008 0.00109954
-0.9125 -0.050001 0.00109949
-0.9 -0.0500011 0.00109943
-0.8875 -0.0500013 0.00109937
-0.875 -0.0500014 0.00109932
-0.8625 -0.0500014 0.00109918
-0.85 -0.0500016 0.00109912
-0.8375 -0.0500017 0.00109905
-0.825 -0.0500019 0.00109898
-0.8125 -0.050002 0.00109892
-0.8 -0.0500021 0.00109879
-0.7875 -0.0500023 0.00109871
-0.775 -0.0500024 0.00109864
-0.7625 -0.0500025 0.00109856
-0.75 -0.0500027 0.00109849
-0.7375 -0.0500027 0.00109834
-0.725 -0.0500028 0.00109826
-0.7125 -0.050003 0.00109818
-0.7 -0.0500031 0.0010981
-0.6875 -0.0500033 0.00109802
-0.675 -0.0500032 0.00109787
-0.6625 -0.0500034 0.00109779
-0.65 -0.0500035 0.0010977
-0.6375 -0.0500037 0.00109761
-0.625 -0.0500038 0.00109753
-0.6125 -0.0500039 0.00109739
-0.6 -0.050004 0.0010973
-0.5875 -0.0500042 0.00109721
-0.575 -0.0500043 0.00109712
-0.5625 -0.0500044 0.00109703
-0.55 -0.0500045 0.00109688
-0.5375 -0.0500047 0.00109679
-0.525 -0.0500048 0.00109669
-0.5125 -0.0500049 0.0010966
-0.5 -0.0500051 0.00109651
-0.4875 -0.0500051 0.00109635
-0.475 -0.0500052 0.00109625
-0.4625 -0.0500053 0.00109616
-0.45 -0.0500055 0.00109606
-0.4375 -0.0500056 0.00109596
-0.425 -0.0500056 0.0010958
-0.4125 -0.0500058 0.0010957
-0.4 -0.0500059 0.0010956
-0.3875 -0.050006 0.0010955
-0.375 -0.0500062 0.0010954
-0.3625 -0.0500062 0.00109523
-0.35 -0.0500063 0.00109513
-0.3375 -0.0500064 0.00109503
-0.325 -0.0500066 0.00109492
-0.3125 -0.0500067 0.00109482
-0.3 -0.0500068 0.00109466
-0.2875 -0.0500069 0.00109455
-0.275 -0.0500071 0.00109444
-0.2625 -0.0500072 0.00109434
-0.25 -0.0500074 0.00109423
-0.2375 -0.0500074 0.00109406
-0.225 -0.0500076 0.00109395
-0.2125 -0.0500077 0.00109384
-0.2 -0.0500078 0.00109373
-0.1875 -0.050008 0.00109362
-0.175 -0.050008 0.00109344
-0.1625 -0.0500081 0.00109333
-0.15 -0.0500082 0.00109322
-0.1375 -0.0500084 0.0010931
-0.125 -0.0500085 0.00109299
-0.1125 -0.0500086 0.00109282
-0.1 -0.0500087 0.0010927
-0.0875 -0.0500089 0.00109258
-0.075 -0.050009 0.00109247
-0.0625 -0.0500092 0.00109235
-0.05 -0.0500092 0.00109217
-0.0375 -0.0500094 0.00109205
-0.025 -0.0500095 0.00109193
-0.0125 -0.0500096 0.00109181
3.21682e-12 -0.0500098 0.00109169
0.0125 -0.0500098 0.00109151
0.025 -0.0500099 0.00109139
0.0375 -0.05001 0.00109126
0.05 -0.0500102 0.00109114
0.0625 -0.0500103 0.00109102
0.075 -0.0500103 0.00109083
0.0875 -0.0500104 0.0010907
0.1 -0.0500106 0.00109058
0.1125 -0.0500107 0.00109045
0.125 -0.0500108 0.00109033
0.1375 -0.0500108 0.00109013
0.15 -0.0500109 0.00109001
0.1625 -0.0500111 0.00108988
0.175 -0.0500112 0.00108975
0.1875 -0.0500113 0.00108962
0.2 -0.0500114 0.00108944
0.2125 -0.0500116 0.00108931
0.225 -0.0500117 0.00108918
0.2375 -0.0500118 0.00108905
0.25 -0.0500119 0.00108892
0.2625 -0.0500119 0.00108872
0.275 -0.0500121 0.00108859
0.2875 -0.0500122 0.00108846
0.3 -0.0500123 0.00108832
0.3125 -0.0500124 0.00108819
0.325 -0.0500124 0.00108799
0.3375 -0.0500126 0.00108786
0.35 -0.0500127 0.00108773
0.3625 -0.0500128 0.00108759
0.375 -0.0500129 0.00108746
0.3875 -0.050013 0.00108727
0.4 -0.0500131 0.00108713
0.4125 -0.0500133 0.00108699
0.425 -0.0500134 0.00108686
0.4375 -0.0500135 0.00108672
0.45 -0.0500136 0.00108653
0.4625 -0.0500137 0.00108639
0.475 -0.0500138 0.00108626
0.4875 -0.050014 0.00108612
0.5 -0.0500141 0.00108598
0.5125 -0.0500141 0.00108578
0.525 -0.0500142 0.00108564
0.5375 -0.0500143 0.00108551
0.55 -0.0500144 0.00108537
0.5625 -0.0500146 0.00108523
0.575 -0.0500145 0.00108503
0.5875 -0.0500147 0.00108489
0.6 -0.0500148 0.00108475
0.6125 -0.0500149 0.00108461
0.625 -0.050015 0.00108448
0.6375 -0.050015 0.00108427
0.65 -0.0500151 0.00108413
0.6625 -0.0500152 0.001084
0.675 -0.0500154 0.00108386
0.6875 -0.0500155 0.00108372
0.7 -0.0500155 0.00108352
0.7125 -0.0500157 0.00108338
0.725 -0.0500158 0.00108324
0.7375 -0.0500159 0.00108311
0.75 -0.050016 0.00108297
0.7625 -0.0500161 0.00108277
0.775 -0.0500162 0.00108263
0.7875 -0.0500163 0.00108249
0.8 -0.0500164 0.00108235
0.8125 -0.0500165 0.00108222
0.825 -0.0500165 0.00108201
0.8375 -0.0500166 0.00108188
0.85 -0.0500167 0.00108174
0.8625 -0.0500168 0.0010816
0.875 -0.0500169 0.00108146
0.8875 -0.050017 0.00108127
0.9 -0.0500171 0.00108113
0.9125 -0.0500172 0.00108099
0.925 -0.0500173 0.00108086
0.9375 -0.0500174 0.00108072
0.95 -0.0500175 0.00108053
0.9625 -0.0500176 0.00108039
0.975 -0.0500177 0.00108026
0.9875 -0.0500178 0.00108012
1 -0.0500179 0.00107998
1.0125 -0.0500178 0.00107979
1.025 -0.0500179 0.00107965
1.0375 -0.050018 0.00107952
1.05 -0.0500181 0.00107939
1.0625 -0.0500182 0.00107925
1.075 -0.0500182 0.00107906
1.0875 -0.0500183 0.00107893
1.1 -0.0500184 0.00107879
1.1125 -0.0500185 0.00107866
1.125 -0.0500186 0.00107853
1.1375 -0.0500186 0.00107834
1.15 -0.0500187 0.00107821
1.1625 -0.0500188 0.00107808
1.175 -0.0500188 0.00107795
1.1875 -0.0500189 0.00107782
1.2 -0.050019 0.00107764
1.2125 -0.0500191 0.00107751
1.225 -0.0500191 0.00107738
1.2375 -0.0500192 0.00107725
1.25 -0.0500193 0.00107712
1.2625 -0.0500193 0.00107694
1.275 -0.0500194 0.00107682
1.2875 -0.0500195 0.00107669
1.3 -0.0500195 0.00107657
1.3125 -0.0500196 0.00107644
1.325 -0.0500196 0.00107626
1.3375 -0.0500197 0.00107614
1.35 -0.0500197 0.00107602
1.3625 -0.0500198 0.0010759
1.375 -0.0500199 0.00107578
1.3875 -0.0500199 0.00107561
1.4 -0.05002 0.00107549
1.4125 -0.0500201 0.00107537
1.425 -0.0500201 0.00107525
1.4375 -0.0500202 0.00107514
1.45 -0.0500202 0.00107497
1.4625 -0.0500203 0.00107486
1.475 -0.0500204 0.00107474
1.4875 -0.0500205 0.00107463
1.5 -0.0500205 0.00107451
1.5125 -0.0500205 0.00107435
1.525 -0.0500206 0.00107424
1.5375 -0.0500206 0.00107413
1.55 -0.0500207 0.00107402
1.5625 -0.0500207 0.00107391
1.575 -0.0500207 0.00107375
1.5875 -0.0500208 0.00107364
1.6 -0.0500208 0.00107354
1.6125 -0.0500209 0.00107343
1.625 -0.050021 0.00107332
1.6375 -0.0500209 0.00107317
1.65 -0.050021 0.00107307
1.6625 -0.050021 0.00107297
1.675 -0.0500211 0.00107286
1.6875 -0.0500211 0.00107276
1.7 -0.0500212 0.00107262
1.7125 -0.0500212 0.00107252
1.725 -0.0500212 0.00107243
1.7375 -0.0500213 0.00107233
1.75 -0.0500213 0.00107223
1.7625 -0.0500213 0.0010721
1.775 -0.0500214 0.001072
1.7875 -0.0500214 0.00107191
1.8 -0.0500215 0.00107182
1.8125 -0.0500215 0.00107173
1.825 -0.0500215 0.00107159
1.8375 -0.0500215 0.00107151
1.85 -0.0500216 0.00107142
1.8625 -0.0500216 0.00107134
1.875 -0.0500216 0.00107125
1.8875 -0.0500216 0.00107113
1.9 -0.0500217 0.00107105
1.9125 -0.0500217 0.00107097
1.925 -0.0500217 0.00107089
1.9375 -0.0500218 0.00107081
1.95 -0.0500218 0.0010707
1.9625 -0.0500218 0.00107062
1.975 -0.0500218 0.00107055
1.9875 -0.0500218 0.00107047
2 -0.0500219 0.0010704
2.0125 -0.0500218 0.00107029
2.025 -0.0500219 0.00107022
2.0375 -0.0500219 0.00107015
2.05 -0.0500219 0.00107008
2.0625 -0.0500219 0.00107001
2.075 -0.0500219 0.00106991
2.0875 -0.0500219 0.00106985
2.1 -0.0500219 0.00106978
2.1125 -0.050022 0.00106972
2.125 -0.050022 0.00106966
2.1375 -0.050022 0.00106956
2.15 -0.050022 0.00106951
2.1625 -0.050022 0.00106945
2.175 -0.050022 0.00106939
2.1875 -0.050022 0.00106933
2.2 -0.050022 0.00106925
2.2125 -0.050022 0.0010692
2.225 -0.050022 0.00106914
2.2375 -0.050022 0.00106909
2.25 -0.050022 0.00106904
2.2625 -0.050022 0.00106896
2.275 -0.050022 0.00106891
2.2875 -0.050022 0.00106887
2.3 -0.050022 0.00106882
2.3125 -0.050022 0.00106877
2.325 -0.0500219 0.0010687
2.3375 -0.0500219 0.00106866
2.35 -0.0500219 0.00106862
2.3625 -0.0500219 0.00106858
2.375 -0.0500219 0.00106854
2.3875 -0.0500219 0.00106848
2.4 -0.0500218 0.00106844
2.4125 -0.0500218 0.00106841
2.425 -0.0500218 0.00106837
2.4375 -0.0500218 0.00106834
2.45 -0.0500218 0.00106829
2.4625 -0.0500217 0.00106826
2.475 -0.0500217 0.00106823
2.4875 -0.0500217 0.00106819
2.5 -0.0500217 0.00106816
2.5125 -0.0500217 0.00106812
2.525 -0.0500216 0.00106809
2.5375 -0.0500216 0.00106807
2.55 -0.0500216 0.00106804
2.5625 -0.0500216 0.00106802
2.575 -0.0500215 0.00106798
2.5875 -0.0500215 0.00106796
2.6 -0.0500215 0.00106794
2.6125 -0.0500215 0.00106792
2.625 -0.0500214 0.0010679
2.6375 -0.0500214 0.00106787
2.65 -0.0500214 0.00106786
2.6625 -0.0500213 0.00106784
2.675 -0.0500213 0.00106782
2.6875 -0.0500213 0.00106781
2.7 -0.0500212 0.00106779
2.7125 -0.0500212 0.00106778
2.725 -0.0500211 0.00106777
2.7375 -0.0500211 0.00106776
2.75 -0.050021 0.00106775
2.7625 -0.050021 0.00106774
2.775 -0.0500209 0.00106774
2.7875 -0.0500209 0.00106773
2.8 -0.0500208 0.00106773
2.8125 -0.0500208 0.00106772
2.825 -0.0500208 0.00106771
2.8375 -0.0500207 0.00106771
2.85 -0.0500207 0.00106771
2.8625 -0.0500206 0.00106771
2.875 -0.0500206 0.00106771
2.8875 -0.0500205 0.00106772
2.9 -0.0500204 0.00106772
2.9125 -0.0500204 0.00106773
2.925 -0.0500203 0.00106773
2.9375 -0.0500203 0.00106774
2.95 -0.0500202 0.00106775
2.9625 -0.0500202 0.00106776
2.975 -0.0500201 0.00106777
2.9875 -0.0500201 0.00106778
3 -0.05002 0.00106779
3.0125 -0.05002 0.0010678
3.025 -0.0500199 0.00106782
3.0375 -0.0500199 0.00106783
3.05 -0.0500198 0.00106785
3.0625 -0.0500197 0.00106786
3.075 -0.0500197 0.00106788
3.0875 -0.0500196 0.0010679
3.1 -0.0500196 0.00106792
3.1125 -0.0500195 0.00106794
3.125 -0.0500194 0.00106796
3.1375 -0.0500194 0.00106799
3.15 -0.0500193 0.00106801
3.1625 -0.0500192 0.00106804
3.175 -0.0500192 0.00106806
3.1875 -0.0500191 0.00106808
3.2 -0.050019 0.00106812
3.2125 -0.0500189 0.00106815
3.225 -0.0500189 0.00106818
3.2375 -0.0500188 0.00106821
3.25 -0.0500187 0.00106823
3.2625 -0.0500187 0.00106828
3.275 -0.0500186 0.00106831
3.2875 -0.0500185 0.00106834
3.3 -0.0500184 0.00106837
3.3125 -0.0500183 0.00106841
3.325 -0.0500183 0.00106845
3.3375 -0.0500182 0.00106849
[...]
POINT_DATA 15815
 FIELD attributes 1
U 3 15815 float
20.0058 	-0.000160515 	-0.000188802 20.0057 	-0.000156248 	-0.000194008 20.0056 	-0.000151981 	-0.000199214 20.0055 	-0.000147714 	-0.00020442 20.0054 	-0.000143447 	-0.000209627 20.0054 	-0.00013918 	-0.000214833 20.0104 	-0.000292243 	-7.36219e-05 20.0104 	-0.000292231 	-7.36188e-05 20.0104 	-0.000292219 	-7.36158e-05 20.0104 	-0.000292207 	-7.36127e-05 20.0056 	2.50652e-05 	-0.000206656 20.011 	-0.000255888 	-9.0977e-05 20.011 	-0.000255875 	-9.09723e-05 20.011 	-0.000255862 	-9.09676e-05 20.011 	-0.000255849 	-9.09629e-05 20.0059 	2.54733e-05 	-0.000209998 20.0117 	-0.000240654 	-0.000107634 20.0117 	-0.000240639 	-0.000107627 20.0117 	-0.000240625 	-0.00010762 20.0117 	-0.00024061 	-0.000107614 20.0062 	-0.000111204 	-0.000207876 20.0123 	-0.000235561 	-0.000120102 20.0123 	-0.000235545 	-0.000120094 20.0123 	-0.000235529 	-0.000120085 20.0123 	-0.000235513 	-0.000120077 20.0065 	2.66922e-05 	-0.000227241 20.0129 	-0.000231133 	-0.000130175 20.0129 	-0.000231116 	-0.000130165 20.0129 	-0.000231099 	-0.000130155 20.0129 	-0.000231082 	-0.000130146 20.0069 	2.76357e-05 	-0.000234501 20.0136 	-0.000228438 	-0.000137332 20.0136 	-0.000228421 	-0.000137321 20.0136 	-0.000228403 	-0.000137311 20.0136 	-0.000228385 	-0.0001373 20.0072 	-0.000110394 	-0.000229232 20.0144 	-0.000227287 	-0.0001434 20.0144 	-0.000227268 	-0.000143388 20.0144 	-0.00022725 	-0.000143377 20.0144 	-0.000227231 	-0.000143365 20.0076 	-0.000111499 	-0.000235754 20.0151 	-0.000227223 	-0.000149339 20.0151 	-0.000227204 	-0.000149326 20.0151 	-0.000227185 	-0.000149313 20.0151 	-0.000227165 	-0.0001493 20.008 	2.7489e-05 	-0.000253345 20.0159 	-0.000227306 	-0.000154795 20.0159 	-0.000227286 	-0.000154781 20.0159 	-0.000227266 	-0.000154767 20.0159 	-0.000227246 	-0.000154754 20.0084 	2.71716e-05 	-0.000259193 20.0167 	-0.000226578 	-0.000160026 20.0167 	-0.000226558 	-0.000160012 20.0167 	-0.000226537 	-0.000159997 20.0167 	-0.000226516 	-0.000159983 20.0088 	2.73877e-05 	-0.000265068 20.0175 	-0.000225627 	-0.000165832 20.0175 	-0.000225606 	-0.000165816 20.0175 	-0.000225584 	-0.0001658 20.0175 	-0.000225563 	-0.000165785 20.0092 	-0.000116673 	-0.000259942 20.0184 	-0.000224249 	-0.000171692 20.0184 	-0.000224227 	-0.000171675 20.0184 	-0.000224205 	-0.000171658 20.0184 	-0.000224183 	-0.000171641 20.0097 	-0.000117615 	-0.000265874 20.0193 	-0.000223013 	-0.000177095 20.0193 	-0.000222991 	-0.000177077 20.0193 	-0.000222968 	-0.000177059 20.0193 	-0.000222946 	-0.000177041 20.0101 	2.76851e-05 	-0.000282394 20.0202 	-0.000222921 	-0.000181804 20.0202 	-0.000222898 	-0.000181785 20.0202 	-0.000222874 	-0.000181766 20.0202 	-0.000222851 	-0.000181747 20.0106 	-0.00011971 	-0.000276974 20.0211 	-0.000220638 	-0.00018687 20.0211 	-0.000220615 	-0.00018685 20.0211 	-0.000220591 	-0.000186831 20.0211 	-0.000220568 	-0.000186811 20.0111 	-0.00012015 	-0.000282313 20.0221 	-0.000219836 	-0.000192211 20.0221 	-0.000219812 	-0.000192189 20.0221 	-0.000219788 	-0.000192168 20.0221 	-0.000219764 	-0.000192147 20.0115 	2.77041e-05 	-0.000298347 20.023 	-0.000218482 	-0.000196944 20.023 	-0.000218457 	-0.000196922 20.023 	-0.000218433 	-0.000196899 20.023 	-0.000218408 	-0.000196877 20.012 	2.75214e-05 	-0.000303003 20.024 	-0.000216113 	-0.000200943 20.024 	-0.000216088 	-0.00020092 20.024 	-0.000216063 	-0.000200897 20.024 	-0.000216038 	-0.000200874 20.0125 	2.75601e-05 	-0.000307205 20.0251 	-0.0002136 	-0.000204715 20.0251 	-0.000213575 	-0.000204691 20.0251 	-0.00021355 	-0.000204667 20.0251 	-0.000213525 	-0.000204643 20.0131 	-0.000119803 	-0.000300527 20.0261 	-0.000210025 	-0.000208214 20.0261 	-0.00021 	-0.00020819 20.0261 	-0.000209975 	-0.000208165 20.0261 	-0.00020995 	-0.00020814 20.0136 	2.81537e-05 	-0.000314581 20.0272 	-0.000209495 	-0.000211301 20.0272 	-0.00020947 	-0.000211276 20.0272 	-0.000209444 	-0.00021125 20.0272 	-0.000209419 	-0.000211224 20.0141 	2.80076e-05 	-0.000317653 20.0282 	-0.000206438 	-0.000214144 20.0282 	-0.000206413 	-0.000214118 20.0282 	-0.000206388 	-0.000214092 20.0282 	-0.000206362 	-0.000214065 20.0147 	-0.000116791 	-0.000309888 20.0293 	-0.000202742 	-0.000216619 20.0293 	-0.000202717 	-0.000216592 20.0293 	-0.000202691 	-0.000216565 20.0293 	-0.000202666 	-0.000216538 20.0152 	-0.000114929 	-0.000312052 20.0304 	-0.00019887 	-0.000218531 20.0304 	-0.000198845 	-0.000218503 20.0304 	-0.00019882 	-0.000218476 20.0304 	-0.000198795 	-0.000218449 20.0158 	2.85861e-05 	-0.000323964 20.0315 	-0.000196231 	-0.000220182 20.0315 	-0.000196207 	-0.000220154 20.0315 	-0.000196182 	-0.000220126 20.0315 	-0.000196157 	-0.000220099 20.0163 	2.85997e-05 	-0.00032506 20.0326 	-0.000192115 	-0.000221477 20.0326 	-0.000192091 	-0.000221448 20.0326 	-0.000192066 	-0.00022142 20.0326 	-0.000192042 	-0.000221392 20.0169 	2.90445e-05 	-0.000325512 20.0338 	-0.000187469 	-0.000222288 20.0338 	-0.000187445 	-0.000222259 20.0338 	-0.000187421 	-0.000222231 20.0338 	-0.000187397 	-0.000222203 20.0175 	-0.000105891 	-0.000315393 20.0349 	-0.000182197 	-0.000222494 20.0349 	-0.000182174 	-0.000222466 20.0349 	-0.000182151 	-0.000222437 20.0349 	-0.000182127 	-0.000222409 20.0181 	-0.000102489 	-0.000314637 20.036 	-0.000176795 	-0.000222144 20.036 	-0.000176773 	-0.000222116 20.036 	-0.00017675 	-0.000222087 20.036 	-0.000176727 	-0.000222059 20.0186 	2.98241e-05 	-0.000322824 20.0372 	-0.000173802 	-0.000221048 20.0372 	-0.00017378 	-0.00022102 20.0372 	-0.000173758 	-0.000220992 20.0372 	-0.000173736 	-0.000220964 20.0192 	-9.59119e-05 	-0.000310963 20.0383 	-0.000167328 	-0.00021985 20.0383 	-0.000167307 	-0.000219822 20.0383 	-0.000167285 	-0.000219794 20.0383 	-0.000167264 	-0.000219766 20.0198 	-9.21007e-05 	-0.000308122 20.0394 	-0.000163498 	-0.000217711 20.0394 	-0.000163478 	-0.000217684 20.0394 	-0.000163457 	-0.000217656 20.0394 	-0.000163437 	-0.000217629 20.0203 	2.91683e-05 	-0.000314236 20.0406 	-0.000157504 	-0.000215325 20.0405 	-0.000157484 	-0.000215299 20.0405 	-0.000157464 	-0.000215272 20.0405 	-0.000157445 	-0.000215245 20.0209 	2.94768e-05 	-0.000310033 20.0417 	-0.000150558 	-0.000212346 20.0417 	-0.000150539 	-0.00021232 20.0416 	-0.000150521 	-0.000212294 20.0416 	-0.000150502 	-0.000212268 20.0215 	3.01534e-05 	-0.000305134 20.0428 	-0.000143262 	-0.000209022 20.0428 	-0.000143245 	-0.000208997 20.0427 	-0.000143228 	-0.000208972 20.0427 	-0.00014321 	-0.000208946 20.022 	-7.29399e-05 	-0.000290195 20.0438 	-0.000134896 	-0.000204788 20.0438 	-0.00013488 	-0.000204764 20.0438 	-0.000134864 	-0.00020474 20.0438 	-0.000134848 	-0.000204715 20.0226 	3.10405e-05 	-0.000293143 20.0449 	-0.000129807 	-0.000200136 20.0449 	-0.000129792 	-0.000200113 20.0449 	-0.000129777 	-0.00020009 20.0449 	-0.000129761 	-0.000200066 20.0231 	3.08925e-05 	-0.000286246 20.0459 	-0.000121135 	-0.000195228 20.0459 	-0.000121121 	-0.000195206 20.0459 	-0.000121107 	-0.000195184 20.0459 	-0.000121093 	-0.000195161 20.0236 	-5.5406e-05 	-0.000269584 20.047 	-0.000113606 	-0.000189741 20.047 	-0.000113594 	-0.00018972 20.047 	-0.000113581 	-0.000189699 20.047 	-0.000113569 	-0.000189679 20.0242 	-4.93498e-05 	-0.000261497 20.048 	-0.000107771 	-0.000183992 20.048 	-0.000107759 	-0.000183972 20.048 	-0.000107748 	-0.000183952 20.048 	-0.000107736 	-0.000183933 20.0247 	3.10671e-05 	-0.000261767 20.0489 	-9.99744e-05 	-0.00017735 20.0489 	-9.99641e-05 	-0.000177332 20.0489 	-9.99538e-05 	-0.000177314 20.0489 	-9.99435e-05 	-0.000177295 20.0251 	3.1499e-05 	-0.000252496 20.0499 	-9.15329e-05 	-0.000171315 20.0499 	-9.15238e-05 	-0.000171298 20.0499 	-9.15147e-05 	-0.000171281 20.0499 	-9.15056e-05 	-0.000171264 20.0256 	3.23544e-05 	-0.000242829 20.0508 	-8.24052e-05 	-0.000164056 20.0508 	-8.23974e-05 	-0.00016404 20.0508 	-8.23895e-05 	-0.000164025 20.0508 	-8.23817e-05 	-0.000164009 20.0261 	-2.21735e-05 	-0.000224188 20.0517 	-7.29628e-05 	-0.000157061 20.0517 	-7.29561e-05 	-0.000157046 20.0517 	-7.29494e-05 	-0.000157032 20.0517 	-7.29428e-05 	-0.000157018 20.0265 	-1.49278e-05 	-0.00021379 20.0525 	-6.62536e-05 	-0.000149117 20.0525 	-6.62479e-05 	-0.000149104 20.0525 	-6.62421e-05 	-0.000149091 20.0525 	-6.62364e-05 	-0.000149078 20.027 	3.30302e-05 	-0.000211023 20.0533 	-5.93884e-05 	-0.000138178 20.0533 	-5.93836e-05 	-0.000138167 20.0533 	-5.93789e-05 	-0.000138156 20.0533 	-5.93741e-05 	-0.000138145 20.0274 	-1.00405e-06 	-0.00019132 20.0541 	-5.07714e-05 	-0.000128397 20.0541 	-5.07676e-05 	-0.000128387 20.0541 	-5.07638e-05 	-0.000128377 20.0541 	-5.076e-05 	-0.000128368 20.0278 	6.31066e-06 	-0.000179737 20.0548 	-4.27597e-05 	-0.000119554 20.0548 	-4.27567e-05 	-0.000119546 20.0548 	-4.27538e-05 	-0.000119538 20.0548 	-4.27508e-05 	-0.000119529 20.0281 	3.39166e-05 	-0.000175928 20.0555 	-3.45431e-05 	-0.000110693 20.0555 	-3.45409e-05 	-0.000110686 20.0555 	-3.45387e-05 	-0.000110679 20.0555 	-3.45365e-05 	-0.000110672 20.0285 	3.44926e-05 	-0.000163489 20.0562 	-2.50694e-05 	-0.000101946 20.0562 	-2.50679e-05 	-0.00010194 20.0562 	-2.50664e-05 	-0.000101934 20.0562 	-2.50649e-05 	-0.000101928 20.0288 	3.54894e-05 	-0.000150877 20.0568 	-1.57891e-05 	-9.32515e-05 20.0568 	-1.57883e-05 	-9.32464e-05 20.0568 	-1.57874e-05 	-9.32414e-05 20.0568 	-1.57865e-05 	-9.32363e-05 20.0292 	3.87848e-05 	-0.00013032 20.0574 	-5.69864e-06 	-8.44844e-05 20.0574 	-5.69836e-06 	-8.44803e-05 20.0574 	-5.69808e-06 	-8.44761e-05 20.0574 	-5.6978e-06 	-8.44719e-05 20.0295 	3.70584e-05 	-0.000125034 20.0579 	2.54266e-06 	-7.51993e-05 20.0579 	2.54254e-06 	-7.5196e-05 20.0579 	2.54243e-06 	-7.51927e-05 20.0579 	2.54232e-06 	-7.51894e-05 20.0297 	3.7327e-05 	-0.00011197 20.0584 	1.29599e-05 	-6.66762e-05 20.0584 	1.29594e-05 	-6.66736e-05 20.0584 	1.29589e-05 	-6.6671e-05 20.0584 	1.29583e-05 	-6.66685e-05 20.03 	6.26053e-05 	-9.1538e-05 20.0589 	2.3008e-05 	-5.81131e-05 20.0589 	2.30072e-05 	-5.81111e-05 20.0589 	2.30065e-05 	-5.81091e-05 20.0589 	2.30057e-05 	-5.81072e-05 20.0302 	6.99359e-05 	-7.85567e-05 20.0593 	2.98121e-05 	-4.9133e-05 20.0593 	2.98113e-05 	-4.91316e-05 20.0593 	2.98104e-05 	-4.91302e-05 20.0593 	2.98096e-05 	-4.91288e-05 20.0304 	3.83705e-05 	-7.30145e-05 20.0597 	3.82657e-05 	-4.05134e-05 20.0597 	3.82648e-05 	-4.05124e-05 20.0597 	3.82639e-05 	-4.05114e-05 20.0597 	3.8263e-05 	-4.05105e-05 20.0306 	3.90207e-05 	-6.01892e-05 20.06 	4.71716e-05 	-3.21234e-05 20.06 	4.71707e-05 	-3.21228e-05 20.06 	4.71698e-05 	-3.21222e-05 20.06 	4.71689e-05 	-3.21216e-05 20.0308 	4.00811e-05 	-4.75326e-05 20.0603 	5.62614e-05 	-2.43603e-05 20.0603 	5.62606e-05 	-2.436e-05 20.0603 	5.62598e-05 	-2.43596e-05 20.0603 	5.6259e-05 	-2.43593e-05 20.0309 	9.99581e-05 	-2.79267e-05 20.0606 	6.61068e-05 	-1.65978e-05 20.0606 	6.61061e-05 	-1.65977e-05 20.0606 	6.61055e-05 	-1.65975e-05 20.0606 	6.61049e-05 	-1.65973e-05 20.0311 	0.000107095 	-1.55034e-05 20.0608 	7.29753e-05 	-8.34169e-06 20.0608 	7.29749e-05 	-8.34165e-06 20.0608 	7.29746e-05 	-8.34161e-06 20.0608 	7.29742e-05 	-8.34157e-06 20.0312 	4.10333e-05 	-1.00354e-05 20.0609 	7.79292e-05 	1.29765e-08 20.0609 	7.79292e-05 	1.29765e-08 20.0609 	7.79292e-05 	1.29765e-08 20.0609 	7.79292e-05 	1.29765e-08 20.0313 	0.000119749 	8.71361e-06 20.0611 	8.68602e-05 	7.85767e-06 20.0611 	8.68606e-05 	7.85771e-06 20.0611 	8.6861e-05 	7.85774e-06 20.0611 	8.68614e-05 	7.85778e-06 20.0313 	4.18238e-05 	1.34215e-05 20.0612 	9.45661e-05 	1.57222e-05 20.0612 	9.45669e-05 	1.57223e-05 20.0612 	9.45678e-05 	1.57224e-05 20.0612 	9.45687e-05 	1.57226e-05 20.0314 	4.25775e-05 	2.46484e-05 20.0612 	0.00010266 	2.3292e-05 20.0612 	0.000102661 	2.32923e-05 20.0612 	0.000102663 	2.32926e-05 20.0612 	0.000102664 	2.32929e-05 20.0314 	4.34347e-05 	3.55843e-05 20.0613 	0.000110399 	3.09687e-05 20.0613 	0.000110401 	3.09693e-05 20.0613 	0.000110403 	3.09698e-05 20.0613 	0.000110405 	3.09704e-05 20.0314 	4.41791e-05 	4.63547e-05 20.0613 	0.000117738 	3.80781e-05 20.0613 	0.000117741 	3.8079e-05 20.0613 	0.000117743 	3.80798e-05 20.0613 	0.000117746 	3.80807e-05 20.0314 	0.000152221 	6.33322e-05 20.0612 	0.0001251 	4.49633e-05 20.0612 	0.000125103 	4.49644e-05 20.0612 	0.000125106 	4.49656e-05 20.0612 	0.000125109 	4.49668e-05 20.0314 	4.53206e-05 	6.67247e-05 20.0611 	0.000131473 	5.19183e-05 20.0611 	0.000131477 	5.19199e-05 20.0611 	0.000131481 	5.19214e-05 20.0611 	0.000131485 	5.1923e-05 20.0314 	4.54522e-05 	7.64963e-05 20.061 	0.000138211 	5.84842e-05 20.061 	0.000138215 	5.84862e-05 20.061 	0.00013822 	5.84882e-05 20.061 	0.000138225 	5.84902e-05 20.0313 	0.00016905 	9.22112e-05 20.0609 	0.000145205 	6.4681e-05 20.0609 	0.00014521 	6.46834e-05 20.0609 	0.000145216 	6.46858e-05 20.0609 	0.000145221 	6.46883e-05 20.0313 	0.000173895 	0.000101079 20.0607 	0.000148823 	7.08529e-05 20.0607 	0.000148829 	7.08558e-05 20.0607 	0.000148835 	7.08588e-05 20.0607 	0.000148841 	7.08617e-05 20.0312 	4.60092e-05 	0.000103188 20.0605 	0.000153516 	7.65622e-05 20.0605 	0.000153523 	7.65656e-05 20.0605 	0.00015353 	7.6569e-05 20.0605 	0.000153536 	7.65724e-05 20.0311 	4.56418e-05 	0.000111345 20.0603 	0.000159185 	8.19848e-05 20.0603 	0.000159193 	8.19887e-05 20.0603 	0.000159201 	8.19926e-05 20.0603 	0.000159208 	8.19965e-05 20.0309 	4.55498e-05 	0.000119039 20.06 	0.00016438 	8.70399e-05 20.06 	0.000164388 	8.70444e-05 20.06 	0.000164397 	8.70488e-05 20.06 	0.000164405 	8.70532e-05 20.0308 	0.000190055 	0.000132591 20.0598 	0.000169293 	9.1785e-05 20.0598 	0.000169302 	9.17899e-05 20.0598 	0.000169311 	9.17948e-05 20.0598 	0.00016932 	9.17997e-05 20.0307 	0.000193473 	0.000139367 20.0595 	0.000172642 	9.60426e-05 20.0595 	0.000172652 	9.6048e-05 20.0595 	0.000172661 	9.60533e-05 20.0595 	0.000172671 	9.60587e-05 20.0305 	4.43328e-05 	0.000139486 20.0592 	0.000172799 	0.000100261 20.0592 	0.000172809 	0.000100267 20.0592 	0.000172819 	0.000100273 20.0592 	0.000172829 	0.000100279 20.0304 	4.33298e-05 	0.000145647 20.0588 	0.000176339 	0.000104463 20.0588 	0.000176349 	0.000104469 20.0588 	0.00017636 	0.000104476 20.0588 	0.000176371 	0.000104482 20.0302 	0.000200618 	0.000157805 20.0585 	0.000176744 	0.000108714 20.0585 	0.000176755 	0.000108721 20.0585 	0.000176766 	0.000108728 20.0585 	0.000176777 	0.000108735 20.0301 	0.000202484 	0.00016326 20.0581 	0.000179583 	0.000112191 20.0581 	0.000179595 	0.000112199 20.0581 	0.000179607 	0.000112206 20.0581 	0.000179619 	0.000112213 20.0299 	4.01112e-05 	0.000161883 20.0577 	0.000177454 	0.000115852 20.0577 	0.000177466 	0.00011586 20.0577 	0.000177478 	0.000115867 20.0577 	0.00017749 	0.000115875 20.0297 	3.78629e-05 	0.000166589 20.0573 	0.000177102 	0.000118965 20.0573 	0.000177114 	0.000118973 20.0573 	0.000177126 	0.000118981 20.0573 	0.000177138 	0.000118989 20.0295 	0.000206223 	0.000176982 20.0569 	0.000179593 	0.000121513 20.0569 	0.000179606 	0.000121521 20.0569 	0.000179618 	0.00012153 20.0569 	0.000179631 	0.000121538 20.0293 	3.55777e-05 	0.00017435 20.0564 	0.000177124 	0.000123927 20.0564 	0.000177136 	0.000123936 20.0564 	0.000177149 	0.000123945 20.0564 	0.000177162 	0.000123954 20.0291 	3.37571e-05 	0.0001777 20.056 	0.000178315 	0.000126043 20.056 	0.000178328 	0.000126052 20.056 	0.000178341 	0.000126061 20.056 	0.000178354 	0.000126071 20.0289 	0.000209031 	0.000186804 20.0555 	0.000179994 	0.00012781 20.0555 	0.000180007 	0.00012782 20.0555 	0.000180021 	0.000127829 20.0555 	0.000180034 	0.000127839 20.0286 	0.000209932 	0.000189352 20.0551 	0.000180523 	0.00012933 20.0551 	0.000180537 	0.00012934 20.0551 	0.00018055 	0.00012935 20.0551 	0.000180564 	0.000129359 20.0284 	3.16102e-05 	0.000185378 20.0546 	0.000179591 	0.000130641 20.0546 	0.000179604 	0.000130651 20.0546 	0.000179618 	0.000130661 20.0546 	0.000179631 	0.000130671 20.0282 	3.06074e-05 	0.000187274 20.0541 	0.000180542 	0.000131791 20.0541 	0.000180556 	0.000131801 20.0541 	0.00018057 	0.000131811 20.0542 	0.000180584 	0.000131821 20.0279 	3.00803e-05 	0.000188825 20.0537 	0.000181473 	0.00013263 20.0537 	0.000181487 	0.000132641 20.0537 	0.000181501 	0.000132651 20.0537 	0.000181515 	0.000132661 20.0277 	0.000211867 	0.000196316 20.0532 	0.000182103 	0.000133392 20.0532 	0.000182117 	0.000133402 20.0532 	0.000182132 	0.000133413 20.0532 	0.000182146 	0.000133423 20.0275 	0.000212096 	0.000197362 20.0527 	0.00018228 	0.00013369 20.0527 	0.000182295 	0.0001337 20.0527 	0.000182309 	0.000133711 20.0527 	0.000182323 	0.000133721 20.0272 	2.73652e-05 	0.000191849 20.0522 	0.000179232 	0.000134102 20.0522 	0.000179246 	0.000134112 20.0522 	0.00017926 	0.000134123 20.0522 	0.000179273 	0.000134133 20.027 	0.000210982 	0.000198598 20.0517 	0.000179275 	0.000134211 20.0517 	0.000179289 	0.000134221 20.0517 	0.000179303 	0.000134232 20.0517 	0.000179317 	0.000134242 20.0268 	0.000210216 	0.000198868 20.0513 	0.000175822 	0.000134479 20.0513 	0.000175836 	0.00013449 20.0513 	0.00017585 	0.0001345 20.0513 	0.000175863 	0.000134511 20.0265 	0.000209073 	0.000199012 20.0508 	0.000175517 	0.000134089 20.0508 	0.000175531 	0.000134099 20.0508 	0.000175544 	0.00013411 20.0508 	0.000175558 	0.00013412 20.0263 	2.08835e-05 	0.000192498 20.0503 	0.000171315 	0.000133733 20.0503 	0.000171329 	0.000133743 20.0503 	0.000171342 	0.000133754 20.0503 	0.000171355 	0.000133764 20.0261 	1.87007e-05 	0.000191997 20.0498 	0.000169922 	0.000133243 20.0498 	0.000169935 	0.000133253 20.0498 	0.000169948 	0.000133263 20.0498 	0.000169961 	0.000133273 20.0258 	0.000205761 	0.000197622 20.0493 	0.000168734 	0.00013269 20.0493 	0.000168747 	0.000132701 20.0493 	0.00016876 	0.000132711 20.0493 	0.000168773 	0.000132721 20.0256 	1.68148e-05 	0.000190588 20.0489 	0.000166688 	0.000131923 20.0489 	0.000166701 	0.000131933 20.0489 	0.000166714 	0.000131943 20.0489 	0.000166726 	0.000131953 20.0254 	1.57834e-05 	0.000189648 20.0484 	0.000165857 	0.000131116 20.0484 	0.000165869 	0.000131126 20.0484 	0.000165882 	0.000131135 20.0484 	0.000165894 	0.000131145 20.0251 	0.000203319 	0.000194746 20.0479 	0.00016585 	0.000130154 20.0479 	0.000165862 	0.000130164 20.0479 	0.000165875 	0.000130173 20.0479 	0.000165887 	0.000130183 20.0249 	0.000202147 	0.000193535 20.0475 	0.000162375 	0.000129215 20.0475 	0.000162387 	0.000129225 20.0475 	0.000162399 	0.000129235 20.0475 	0.000162411 	0.000129244 20.0247 	1.2334e-05 	0.000186064 20.047 	0.000159927 	0.000128122 20.047 	0.000159939 	0.000128131 20.047 	0.000159951 	0.000128141 20.047 	0.000159962 	0.00012815 20.0245 	1.12734e-05 	0.000184629 20.0466 	0.000158958 	0.000126985 20.0466 	0.00015897 	0.000126994 20.0466 	0.000158981 	0.000127004 20.0466 	0.000158993 	0.000127013 20.0242 	1.05548e-05 	0.000183014 20.0461 	0.000158032 	0.000125594 20.0461 	0.000158043 	0.000125603 20.0461 	0.000158055 	0.000125612 20.0461 	0.000158066 	0.000125621 20.024 	0.000197009 	0.000187417 20.0457 	0.000156996 	0.000124234 20.0457 	0.000157008 	0.000124243 20.0457 	0.000157019 	0.000124252 20.0457 	0.00015703 	0.000124261 20.0238 	0.000195756 	0.000185728 20.0453 	0.0001554 	0.00012278 20.0453 	0.000155411 	0.000122789 20.0453 	0.000155422 	0.000122797 20.0453 	0.000155433 	0.000122806 20.0236 	7.54437e-06 	0.000177785 20.0448 	0.000151093 	0.000121506 20.0448 	0.000151103 	0.000121514 20.0448 	0.000151114 	0.000121523 20.0449 	0.000151124 	0.000121531 20.0234 	0.000191942 	0.000182138 20.0444 	0.000149225 	0.000120119 20.0444 	0.000149235 	0.000120127 20.0444 	0.000149246 	0.000120136 20.0444 	0.000149256 	0.000120144 20.0232 	0.000190121 	0.000180274 20.044 	0.000146044 	0.000118717 20.044 	0.000146054 	0.000118725 20.044 	0.000146064 	0.000118733 20.044 	0.000146074 	0.000118741 20.023 	3.38517e-06 	0.000172288 20.0436 	0.000143141 	0.000117109 20.0436 	0.00014315 	0.000117117 20.0436 	0.00014316 	0.000117124 20.0436 	0.000143169 	0.000117132 20.0228 	1.80256e-06 	0.000170234 20.0432 	0.000141331 	0.000115536 20.0432 	0.000141341 	0.000115544 20.0432 	0.00014135 	0.000115552 20.0432 	0.000141359 	0.000115559 20.0226 	3.7543e-07 	0.000168131 20.0428 	