# vtk DataFile Version 2.0
track0
ASCII
DATASET POLYDATA
POINTS 15815 float
-1.001 -0.05 0.0011
-1.0008 -0.05 0.0011
-1.0006 -0.05 0.0011
-1.0004 -0.05 0.00109999
-1.0002 -0.05 0.00109999
-1 -0.05 0.00109999
-0.9875 -0.0500001 0.00109986
-0.975 -0.0500003 0.00109981
-0.9625 -0.0500005 0.00109976
-0.95 -0.0500006 0.00109972
-0.9375 -0.0500008 0.00109967
-0.925 -0.0500008 0.00109954
-0.9125 -0.050001 0.00109949
-0.9 -0.0500011 0.00109943
-0.8875 -0.0500013 0.00109937
-0.875 -0.0500014 0.00109932
-0.8625 -0.0500014 0.00109918
-0.85 -0.0500016 0.00109912
-0.8375 -0.0500017 0.00109905
-0.825 -0.0500019 0.00109898
-0.8125 -0.050002 0.00109892
-0.8 -0.0500021 0.00109879
-0.7875 -0.0500023 0.00109871
-0.775 -0.0500024 0.00109864
-0.7625 -0.0500025 0.00109856
-0.75 -0.0500027 0.00109849
-0.7375 -0.0500027 0.00109834
-0.725 -0.0500028 0.00109826
-0.7125 -0.050003 0.00109818
-0.7 -0.0500031 0.0010981
-0.6875 -0.0500033 0.00109802
-0.675 -0.0500032 0.00109787
-0.6625 -0.0500034 0.00109779
-0.65 -0.0500035 0.0010977
-0.6375 -0.0500037 0.00109761
-0.625 -0.0500038 0.00109753
-0.6125 -0.0500039 0.00109739
-0.6 -0.050004 0.0010973
-0.5875 -0.0500042 0.00109721
-0.575 -0.0500043 0.00109712
-0.5625 -0.0500044 0.00109703
-0.55 -0.0500045 0.00109688
-0.5375 -0.0500047 0.00109679
-0.525 -0.0500048 0.00109669
-0.5125 -0.0500049 0.0010966
-0.5 -0.0500051 0.00109651
-0.4875 -0.0500051 0.00109635
-0.475 -0.0500052 0.00109625
-0.4625 -0.0500053 0.00109616
-0.45 -0.0500055 0.00109606
-0.4375 -0.0500056 0.00109596
-0.425 -0.0500056 0.0010958
-0.4125 -0.0500058 0.0010957
-0.4 -0.0500059 0.0010956
-0.3875 -0.050006 0.0010955
-0.375 -0.0500062 0.0010954
-0.3625 -0.0500062 0.00109523
-0.35 -0.0500063 0.00109513
-0.3375 -0.0500064 0.00109503
-0.325 -0.0500066 0.00109492
-0.3125 -0.0500067 0.00109482
-0.3 -0.0500068 0.00109466
-0.2875 -0.0500069 0.00109455
-0.275 -0.0500071 0.00109444
-0.2625 -0.0500072 0.00109434
-0.25 -0.0500074 0.00109423
-0.2375 -0.0500074 0.00109406
-0.225 -0.0500076 0.00109395
-0.2125 -0.0500077 0.00109384
-0.2 -0.0500078 0.00109373
-0.1875 -0.050008 0.00109362
-0.175 -0.050008 0.00109344
-0.1625 -0.0500081 0.00109333
-0.15 -0.0500082 0.00109322
-0.1375 -0.0500084 0.0010931
-0.125 -0.0500085 0.00109299
-0.1125 -0.0500086 0.00109282
-0.1 -0.0500087 0.0010927
-0.0875 -0.0500089 0.00109258
-0.075 -0.050009 0.00109247
-0.0625 -0.0500092 0.00109235
-0.05 -0.0500092 0.00109217
-0.0375 -0.0500094 0.00109205
-0.025 -0.0500095 0.00109193
-0.0125 -0.0500096 0.00109181
3.21682e-12 -0.0500098 0.00109169
0.0125 -0.0500098 0.00109151
0.025 -0.0500099 0.00109139
0.0375 -0.05001 0.00109126
0.05 -0.0500102 0.00109114
0.0625 -0.0500103 0.00109102
0.075 -0.0500103 0.00109083
0.0875 -0.0500104 0.0010907
0.1 -0.0500106 0.00109058
0.1125 -0.0500107 0.00109045
0.125 -0.0500108 0.00109033
0.1375 -0.0500108 0.00109013
0.15 -0.0500109 0.00109001
0.1625 -0.0500111 0.00108988
0.175 -0.0500112 0.00108975
0.1875 -0.0500113 0.00108962
0.2 -0.0500114 0.00108944
0.2125 -0.0500116 0.00108931
0.225 -0.0500117 0.00108918
0.2375 -0.0500118 0.00108905
0.25 -0.0500119 0.00108892
0.2625 -0.0500119 0.00108872
0.275 -0.0500121 0.00108859
0.2875 -0.0500122 0.00108846
0.3 -0.0500123 0.00108832
0.3125 -0.0500124 0.00108819
0.325 -0.0500124 0.00108799
0.3375 -0.0500126 0.00108786
0.35 -0.0500127 0.00108773
0.3625 -0.0500128 0.00108759
0.375 -0.0500129 0.00108746
0.3875 -0.050013 0.00108727
0.4 -0.0500131 0.00108713
0.4125 -0.0500133 0.00108699
0.425 -0.0500134 0.00108686
0.4375 -0.0500135 0.00108672
0.45 -0.0500136 0.00108653
0.4625 -0.0500137 0.00108639
0.475 -0.0500138 0.00108626
0.4875 -0.050014 0.00108612
0.5 -0.0500141 0.00108598
0.5125 -0.0500141 0.00108578
0.525 -0.0500142 0.00108564
0.5375 -0.0500143 0.00108551
0.55 -0.0500144 0.00108537
0.5625 -0.0500146 0.00108523
0.575 -0.0500145 0.00108503
0.5875 -0.0500147 0.00108489
0.6 -0.0500148 0.00108475
0.6125 -0.0500149 0.00108461
0.625 -0.050015 0.00108448
0.6375 -0.050015 0.00108427
0.65 -0.0500151 0.00108413
0.6625 -0.0500152 0.001084
0.675 -0.0500154 0.00108386
0.6875 -0.0500155 0.00108372
0.7 -0.0500155 0.00108352
0.7125 -0.0500157 0.00108338
0.725 -0.0500158 0.00108324
0.7375 -0.0500159 0.00108311
0.75 -0.050016 0.00108297
0.7625 -0.0500161 0.00108277
0.775 -0.0500162 0.00108263
0.7875 -0.0500163 0.00108249
0.8 -0.0500164 0.00108235
0.8125 -0.0500165 0.00108222
0.825 -0.0500165 0.00108201
0.8375 -0.0500166 0.00108188
0.85 -0.0500167 0.00108174
0.8625 -0.0500168 0.0010816
0.875 -0.0500169 0.00108146
0.8875 -0.050017 0.00108127
0.9 -0.0500171 0.00108113
0.9125 -0.0500172 0.00108099
0.925 -0.0500173 0.00108086
0.9375 -0.0500174 0.00108072
0.95 -0.0500175 0.00108053
0.9625 -0.0500176 0.00108039
0.975 -0.0500177 0.00108026
0.9875 -0.0500178 0.00108012
1 -0.0500179 0.00107998
1.0125 -0.0500178 0.00107979
1.025 -0.0500179 0.00107965
1.0375 -0.050018 0.00107952
1.05 -0.0500181 0.00107939
1.0625 -0.0500182 0.00107925
1.075 -0.0500182 0.00107906
1.0875 -0.0500183 0.00107893
1.1 -0.0500184 0.00107879
1.1125 -0.0500185 0.00107866
1.125 -0.0500186 0.00107853
1.1375 -0.0500186 0.00107834
1.15 -0.0500187 0.00107821
1.1625 -0.0500188 0.00107808
1.175 -0.0500188 0.00107795
1.1875 -0.0500189 0.00107782
1.2 -0.050019 0.00107764
1.2125 -0.0500191 0.00107751
1.225 -0.0500191 0.00107738
1.2375 -0.0500192 0.00107725
1.25 -0.0500193 0.00107712
1.2625 -0.0500193 0.00107694
1.275 -0.0500194 0.00107682
1.2875 -0.0500195 0.00107669
1.3 -0.0500195 0.00107657
1.3125 -0.0500196 0.00107644
1.325 -0.0500196 0.00107626
1.3375 -0.0500197 0.00107614
1.35 -0.0500197 0.00107602
1.3625 -0.0500198 0.0010759
1.375 -0.0500199 0.00107578
1.3875 -0.0500199 0.00107561
1.4 -0.05002 0.00107549
1.4125 -0.0500201 0.00107537
1.425 -0.0500201 0.00107525
1.4375 -0.0500202 0.00107514
1.45 -0.0500202 0.00107497
1.4625 -0.0500203 0.00107486
1.475 -0.0500204 0.00107474
1.4875 -0.0500205 0.00107463
1.5 -0.0500205 0.00107451
1.5125 -0.0500205 0.00107435
1.525 -0.0500206 0.00107424
1.5375 -0.0500206 0.00107413
1.55 -0.0500207 0.00107402
1.5625 -0.0500207 0.00107391
1.575 -0.0500207 0.00107375
1.5875 -0.0500208 0.00107364
1.6 -0.0500208 0.00107354
1.6125 -0.0500209 0.00107343
1.625 -0.050021 0.00107332
1.6375 -0.0500209 0.00107317
1.65 -0.050021 0.00107307
1.6625 -0.050021 0.00107297
1.675 -0.0500211 0.00107286
1.6875 -0.0500211 0.00107276
1.7 -0.0500212 0.00107262
1.7125 -0.0500212 0.00107252
1.725 -0.0500212 0.00107243
1.7375 -0.0500213 0.00107233
1.75 -0.0500213 0.00107223
1.7625 -0.0500213 0.0010721
1.775 -0.0500214 0.001072
1.7875 -0.0500214 0.00107191
1.8 -0.0500215 0.00107182
1.8125 -0.0500215 0.00107173
1.825 -0.0500215 0.00107159
1.8375 -0.0500215 0.00107151
1.85 -0.0500216 0.00107142
1.8625 -0.0500216 0.00107134
1.875 -0.0500216 0.00107125
1.8875 -0.0500216 0.00107113
1.9 -0.0500217 0.00107105
1.9125 -0.0500217 0.00107097
1.925 -0.0500217 0.00107089
1.9375 -0.0500218 0.00107081
1.95 -0.0500218 0.0010707
1.9625 -0.0500218 0.00107062
1.975 -0.0500218 0.00107055
1.9875 -0.0500218 0.00107047
2 -0.0500219 0.0010704
2.0125 -0.0500218 0.00107029
2.025 -0.0500219 0.00107022
2.0375 -0.0500219 0.00107015
2.05 -0.0500219 0.00107008
2.0625 -0.0500219 0.00107001
2.075 -0.0500219 0.00106991
2.0875 -0.0500219 0.00106985
2.1 -0.0500219 0.00106978
2.1125 -0.050022 0.00106972
2.125 -0.050022 0.00106966
2.1375 -0.050022 0.00106956
2.15 -0.050022 0.00106951
2.1625 -0.050022 0.00106945
2.175 -0.050022 0.00106939
2.1875 -0.050022 0.00106933
2.2 -0.050022 0.00106925
2.2125 -0.050022 0.0010692
2.225 -0.050022 0.00106914
2.2375 -0.050022 0.00106909
2.25 -0.050022 0.00106904
2.2625 -0.050022 0.00106896
2.275 -0.050022 0.00106891
2.2875 -0.050022 0.00106887
2.3 -0.050022 0.00106882
2.3125 -0.050022 0.00106877
2.325 -0.0500219 0.0010687
2.3375 -0.0500219 0.00106866
2.35 -0.0500219 0.00106862
2.3625 -0.0500219 0.00106858
2.375 -0.0500219 0.00106854
2.3875 -0.0500219 0.00106848
2.4 -0.0500218 0.00106844
2.4125 -0.0500218 0.00106841
2.425 -0.0500218 0.00106837
2.4375 -0.0500218 0.00106834
2.45 -0.0500218 0.00106829
2.4625 -0.0500217 0.00106826
2.475 -0.0500217 0.00106823
2.4875 -0.0500217 0.00106819
2.5 -0.0500217 0.00106816
2.5125 -0.0500217 0.00106812
2.525 -0.0500216 0.00106809
2.5375 -0.0500216 0.00106807
2.55 -0.0500216 0.00106804
2.5625 -0.0500216 0.00106802
2.575 -0.0500215 0.00106798
2.5875 -0.0500215 0.00106796
2.6 -0.0500215 0.00106794
2.6125 -0.0500215 0.00106792
2.625 -0.0500214 0.0010679
2.6375 -0.0500214 0.00106787
2.65 -0.0500214 0.00106786
2.6625 -0.0500213 0.00106784
2.675 -0.0500213 0.00106782
2.6875 -0.0500213 0.00106781
2.7 -0.0500212 0.00106779
2.7125 -0.0500212 0.00106778
2.725 -0.0500211 0.00106777
2.7375 -0.0500211 0.00106776
2.75 -0.050021 0.00106775
2.7625 -0.050021 0.00106774
2.775 -0.0500209 0.00106774
2.7875 -0.0500209 0.00106773
2.8 -0.0500208 0.00106773
2.8125 -0.0500208 0.00106772
2.825 -0.0500208 0.00106771
2.8375 -0.0500207 0.00106771
2.85 -0.0500207 0.00106771
2.8625 -0.0500206 0.00106771
2.875 -0.0500206 0.00106771
2.8875 -0.0500205 0.00106772
2.9 -0.0500204 0.00106772
2.9125 -0.0500204 0.00106773
2.925 -0.0500203 0.00106773
2.9375 -0.0500203 0.00106774
2.95 -0.0500202 0.00106775
2.9625 -0.0500202 0.00106776
2.975 -0.0500201 0.00106777
2.9875 -0.0500201 0.00106778
3 -0.05002 0.00106779
3.0125 -0.05002 0.0010678
3.025 -0.0500199 0.00106782
3.0375 -0.0500199 0.00106783
3.05 -0.0500198 0.00106785
3.0625 -0.0500197 0.00106786
3.075 -0.0500197 0.00106788
3.0875 -0.0500196 0.0010679
3.1 -0.0500196 0.00106792
3.1125 -0.0500195 0.00106794
3.125 -0.0500194 0.00106796
3.1375 -0.0500194 0.00106799
3.15 -0.0500193 0.00106801
3.1625 -0.0500192 0.00106804
3.175 -0.0500192 0.00106806
3.1875 -0.0500191 0.00106808
3.2 -0.050019 0.00106812
3.2125 -0.0500189 0.00106815
3.225 -0.0500189 0.00106818
3.2375 -0.0500188 0.00106821
3.25 -0.0500187 0.00106823
3.2625 -0.0500187 0.00106828
3.275 -0.0500186 0.00106831
3.2875 -0.0500185 0.00106834
3.3 -0.0500184 0.00106837
3.3125 -0.0500183 0.00106841
3.325 -0.0500183 0.00106845
3.3375 -0.0500182 0.00106849
[...]
POINT_DATA 15815
 FIELD attributes 2
p 1 15815 float
3.50606 3.5057 3.50535 3.50499 3.50463 3.50428 3.48434 3.4644 3.44446 3.42452 3.40242 3.37969 3.35693 3.33417 3.31141 3.28935 3.26747 3.2457 3.22394 3.20217 3.18098 3.15914 3.13701 3.11488 3.09276 3.07049 3.04729 3.02388 3.00046 2.97705 2.95345 2.92899 2.90432 2.87966 2.85499 2.83015 2.80465 2.77896 2.75328 2.72759 2.70175 2.67532 2.64872 2.62213 2.59554 2.56877 2.54148 2.51403 2.48658 2.45913 2.43152 2.40338 2.37505 2.34673 2.3184 2.28989 2.2608 2.2315 2.20221 2.17292 2.14342 2.11331 2.08302 2.05273 2.02244 1.99196 1.96091 1.9297 1.89848 1.86726 1.83586 1.8039 1.77178 1.73966 1.70753 1.67522 1.64233 1.60926 1.57618 1.54311 1.50984 1.476 1.44198 1.40797 1.37396 1.33977 1.30501 1.27007 1.23514 1.2002 1.16507 1.12939 1.09352 1.05766 1.02179 0.98574 0.949177 0.912451 0.875724 0.838998 0.802089 0.764735 0.727255 0.689774 0.652294 0.614663 0.576638 0.538477 0.500317 0.462156 0.423849 0.385165 0.34635 0.307534 0.268719 0.229765 0.190478 0.151077 0.111676 0.0722751 0.0327432 -0.00705154 -0.0469374 -0.0868233 -0.126709 -0.166704 -0.206949 -0.247303 -0.287657 -0.328012 -0.368483 -0.409205 -0.450028 -0.49085 -0.531673 -0.572606 -0.613741 -0.654967 -0.696192 -0.737418 -0.778754 -0.820219 -0.861737 -0.903255 -0.944773 -0.986368 -1.02799 -1.06967 -1.11134 -1.15302 -1.19476 -1.23649 -1.27826 -1.32002 -1.36179 -1.40361 -1.44538 -1.48718 -1.52899 -1.57079 -1.61264 -1.65433 -1.69601 -1.7377 -1.77938 -1.82107 -1.86256 -1.90406 -1.94557 -1.98708 -2.0286 -2.06994 -2.11128 -2.15263 -2.19397 -2.23534 -2.27642 -2.31749 -2.35856 -2.39963 -2.44071 -2.48138 -2.52199 -2.5626 -2.6032 -2.64376 -2.68383 -2.72383 -2.76384 -2.80384 -2.84379 -2.88319 -2.92251 -2.96182 -3.00114 -3.04038 -3.079 -3.11752 -3.15604 -3.19456 -3.23299 -3.27076 -3.30842 -3.34609 -3.38376 -3.42133 -3.45823 -3.49503 -3.53183 -3.56862 -3.60532 -3.64133 -3.67725 -3.71317 -3.74909 -3.78491 -3.82001 -3.85499 -3.88996 -3.92494 -3.95981 -3.99388 -4.02778 -4.06168 -4.09558 -4.12934 -4.16215 -4.19477 -4.22739 -4.26001 -4.29246 -4.3238 -4.35497 -4.38614 -4.41731 -4.4483 -4.47827 -4.5081 -4.53794 -4.56777 -4.59745 -4.6262 -4.65479 -4.68338 -4.71197 -4.7404 -4.76787 -4.79516 -4.82246 -4.84975 -4.87688 -4.90301 -4.92895 -4.95489 -4.98083 -5.00658 -5.03131 -5.05584 -5.08037 -5.10489 -5.12922 -5.15247 -5.17549 -5.19851 -5.22154 -5.24434 -5.26604 -5.28752 -5.309 -5.33047 -5.35174 -5.37191 -5.39186 -5.41182 -5.43177 -5.4515 -5.47014 -5.48855 -5.50696 -5.52536 -5.54354 -5.56058 -5.57741 -5.59423 -5.61106 -5.62765 -5.64315 -5.65843 -5.67371 -5.689 -5.70405 -5.71809 -5.73193 -5.74578 -5.75962 -5.77326 -5.78594 -5.79842 -5.81089 -5.82337 -5.83564 -5.84691 -5.85797 -5.86903 -5.88008 -5.89092 -5.9007 -5.91026 -5.91981 -5.92937 -5.93869 -5.94697 -5.95503 -5.9631 -5.97116 -5.979 -5.98586 -5.9925 -5.99914 -6.00579 -6.0122 -6.01766 -6.02292 -6.02817 -6.03343 -6.03846 -6.04254 -6.04642 -6.05029 -6.05416 -6.0578 -6.0605 -6.06301 -6.06551 -6.06802 -6.07031 -6.07168 -6.07284 -6.07401 -6.07517 -6.07612 -6.07619 -6.07605 -6.07592 -6.07578 -6.07543 -6.07424 -6.07284 -6.07144 -6.07004 -6.06843 -6.06601 -6.0634 -6.0608 -6.05819 -6.05539 -6.05181 -6.04804 -6.04427 -6.0405 -6.03654 -6.03182 -6.02692 -6.02202 -6.01713 -6.01204 -6.00625 -6.00029 -5.99432 -5.98836 -5.98221 -5.9754 -5.96844 -5.96148 -5.95452 -5.94739 -5.93964 -5.93174 -5.92384 -5.91594 -5.90786 -5.89921 -5.89042 -5.88162 -5.87283 -5.86388 -5.85442 -5.84481 -5.83521 -5.82561 -5.81586 -5.80564 -5.79531 -5.78498 -5.77465 -5.76418 -5.75327 -5.74223 -5.7312 -5.72016 -5.70899 -5.69739 -5.68566 -5.67394 -5.66222 -5.65038 -5.6381 -5.62569 -5.61328 -5.60087 -5.58833 -5.57538 -5.56234 -5.5493 -5.53627 -5.52312 -5.50963 -5.49604 -5.48245 -5.46887 -5.45516 -5.4411 -5.42693 -5.41276 -5.39859 -5.38429 -5.36966 -5.35493 -5.34019 -5.32546 -5.31061 -5.2955 -5.28032 -5.26514 -5.24996 -5.23469 -5.21924 -5.20372 -5.18821 -5.17269 -5.1571 -5.1414 -5.12566 -5.10991 -5.09416 -5.07836 -5.06247 -5.04651 -5.03056 -5.01461 -4.9986 -4.98249 -4.96634 -4.95019 -4.93403 -4.91782 -4.90154 -4.8852 -4.86886 -4.85252 -4.83612 -4.81968 -4.8032 -4.78672 -4.77024 -4.75371 -4.73721 -4.72067 -4.70413 -4.6876 -4.67101 -4.65448 -4.63793 -4.62138 -4.60483 -4.58824 -4.57171 -4.55515 -4.53859 -4.52203 -4.50544 -4.48894 -4.47242 -4.4559 -4.43939 -4.42286 -4.40641 -4.38992 -4.37344 -4.35696 -4.34044 -4.32395 -4.30742 -4.29089 -4.27436 -4.25777 -4.24122 -4.22463 -4.20804 -4.19145 -4.17479 -4.15824 -4.1417 -4.12516 -4.10862 -4.09207 -4.07568 -4.05929 -4.0429 -4.02651 -4.01012 -3.99388 -3.97762 -3.96136 -3.9451 -3.92883 -3.91272 -3.89662 -3.88052 -3.86442 -3.84832 -3.83246 -3.81664 -3.80081 -3.78498 -3.76918 -3.75366 -3.73816 -3.72266 -3.70716 -3.69169 -3.67645 -3.66121 -3.64598 -3.63074 -3.61551 -3.60048 -3.58544 -3.5704 -3.55535 -3.54031 -3.52544 -3.51057 -3.4957 -3.48083 -3.46596 -3.45129 -3.43662 -3.42195 -3.40728 -3.39261 -3.37816 -3.36374 -3.34932 -3.3349 -3.32049 -3.30632 -3.29217 -3.27802 -3.26388 -3.24974 -3.23587 -3.22203 -3.20818 -3.19434 -3.18052 -3.16691 -3.1533 -3.13969 -3.12607 -3.11246 -3.09897 -3.08547 -3.07198 -3.05848 -3.04497 -3.03161 -3.01825 -3.0049 -2.99154 -2.97817 -2.96504 -2.95191 -2.93878 -2.92566 -2.91255 -2.89971 -2.88688 -2.87406 -2.86124 -2.84847 -2.83597 -2.82348 -2.81099 -2.79851 -2.78605 -2.77387 -2.76173 -2.74959 -2.73745 -2.72533 -2.71348 -2.70168 -2.68989 -2.67809 -2.66633 -2.65482 -2.64332 -2.63183 -2.62033 -2.60886 -2.59762 -2.58638 -2.57514 -2.5639 -2.55268 -2.54166 -2.53065 -2.51964 -2.50863 -2.49764 -2.48682 -2.47601 -2.4652 -2.4544 -2.4436 -2.43298 -2.42238 -2.41177 -2.40117 -2.39056 -2.38015 -2.36977 -2.35938 -2.349 -2.33862 -2.32847 -2.31834 -2.30821 -2.29808 -2.28798 -2.27811 -2.26827 -2.25842 -2.24858 -2.23876 -2.22911 -2.21945 -2.2098 -2.20014 -2.1905 -2.18096 -2.17141 -2.16186 -2.15231 -2.14276 -2.13333 -2.1239 -2.11446 -2.10503 -2.09559 -2.0863 -2.07703 -2.06776 -2.05849 -2.04923 -2.04016 -2.03111 -2.02206 -2.01301 -2.00398 -1.99517 -1.98639 -1.9776 -1.96882 -1.96006 -1.95154 -1.94304 -1.93455 -1.92606 -1.9176 -1.90937 -1.90117 -1.89296 -1.88476 -1.87659 -1.86863 -1.86068 -1.85274 -1.84479 -1.83688 -1.82915 -1.82144 -1.81373 -1.80601 -1.79832 -1.7908 -1.78329 -1.77578 -1.76827 -1.76077 -1.75344 -1.74611 -1.73878 -1.73145 -1.72412 -1.717 -1.7099 -1.70279 -1.69569 -1.68859 -1.68186 -1.67517 -1.66849 -1.66181 -1.65515 -1.64935 -1.64372 -1.6381 -1.63247 -1.62693 -1.62078 -1.61484 -1.6089 -1.60296 -1.59616 -1.57989 -1.56265 -1.54494 -1.52911 -1.51349 -1.50064 -1.48776 -1.47489 -1.4633 -1.45185 -1.4279 -1.40419 -1.38048 -1.35459 -1.33076 -1.30827 -1.28587 -1.26347 -1.24107 -1.2187 -1.19793 -1.1772 -1.15648 -1.13575 -1.11722 -1.07861 -1.04015 -1.0017 -0.963239 -0.92235 -0.889238 -0.856159 -0.823081 -0.790002 -0.758856 -0.703715 -0.648608 -0.5935 -0.538393 -0.479775 -0.436964 -0.393908 -0.350853 -0.307798 -0.265174 -0.239626 -0.213878 -0.18813 -0.162382 -0.136761 -0.122705 -0.108455 -0.0942055 -0.0799556 -0.0656734 -0.0558307 -0.0458724 -0.035915 -0.0259585 -0.0161826
3.49319 3.49279 3.49239 3.49199 3.49159 3.49119 3.47481 3.45585 3.43909 3.42281 3.40143 3.37815 3.35645 3.3346 3.31198 3.29126 3.26909 3.24727 3.22562 3.20401 3.18325 3.161 3.1387 3.11642 3.09423 3.07208 3.04864 3.02519 3.00167 2.97815 2.95463 2.9298 2.90511 2.88043 2.85574 2.83123 2.80535 2.77967 2.75399 2.72832 2.70286 2.67603 2.64942 2.62281 2.59621 2.56983 2.54208 2.51462 2.48712 2.45962 2.43241 2.40388 2.37553 2.34718 2.31885 2.2907 2.26129 2.232 2.2027 2.17341 2.14423 2.11378 2.08346 2.05316 2.02286 1.99269 1.96123 1.93 1.89875 1.86749 1.83644 1.80411 1.77195 1.73979 1.70766 1.67569 1.64244 1.60936 1.57627 1.54317 1.51024 1.47603 1.44198 1.40794 1.37393 1.34007 1.30496 1.27002 1.23503 1.20003 1.16519 1.12916 1.09323 1.05731 1.02144 0.985662 0.948736 0.911999 0.875226 0.838444 0.801836 0.764106 0.72657 0.689044 0.651554 0.614241 0.575833 0.537665 0.499456 0.461237 0.423249 0.384212 0.345333 0.306465 0.267643 0.228969 0.189304 0.149894 0.110439 0.0709712 0.0317439 -0.00842595 -0.0483794 -0.0883198 -0.128214 -0.167906 -0.208478 -0.248839 -0.289251 -0.329678 -0.369906 -0.410917 -0.451821 -0.492709 -0.53354 -0.574267 -0.6157 -0.656936 -0.698229 -0.73954 -0.780676 -0.822433 -0.864038 -0.905625 -0.947155 -0.988544 -1.03049 -1.07218 -1.11392 -1.15569 -1.19722 -1.23919 -1.28105 -1.32288 -1.36465 -1.40631 -1.44832 -1.49013 -1.532 -1.57388 -1.61557 -1.65754 -1.6993 -1.74104 -1.78272 -1.82421 -1.86589 -1.90739 -1.94896 -1.99055 -2.03198 -2.07345 -2.11489 -2.15631 -2.19766 -2.23897 -2.2802 -2.32128 -2.36242 -2.40357 -2.44459 -2.48545 -2.52613 -2.56679 -2.6074 -2.64786 -2.68809 -2.7281 -2.76815 -2.80822 -2.84807 -2.88761 -2.92699 -2.96636 -3.00568 -3.04485 -3.0836 -3.12212 -3.16069 -3.19927 -3.23763 -3.27547 -3.31319 -3.35089 -3.38856 -3.42612 -3.46308 -3.49987 -3.5367 -3.57355 -3.61024 -3.64622 -3.68219 -3.71814 -3.75406 -3.78995 -3.82506 -3.86004 -3.89505 -3.93007 -3.96497 -3.99906 -4.03299 -4.06691 -4.10082 -4.1346 -4.16762 -4.20026 -4.23291 -4.26558 -4.29787 -4.32941 -4.36063 -4.39183 -4.423 -4.45381 -4.48371 -4.51352 -4.54338 -4.57325 -4.60301 -4.63163 -4.66025 -4.68886 -4.71743 -4.74602 -4.77333 -4.80061 -4.82791 -4.85523 -4.88253 -4.90846 -4.93441 -4.96037 -4.9863 -5.01227 -5.03677 -5.06129 -5.08581 -5.11034 -5.13489 -5.1579 -5.18091 -5.20393 -5.22694 -5.24996 -5.27141 -5.29288 -5.31434 -5.3358 -5.3573 -5.37716 -5.39709 -5.41703 -5.43697 -5.45698 -5.47532 -5.49372 -5.5121 -5.53048 -5.54891 -5.56565 -5.58244 -5.59924 -5.61606 -5.63292 -5.64807 -5.66335 -5.67861 -5.69388 -5.70925 -5.72287 -5.7367 -5.75053 -5.76437 -5.77839 -5.79063 -5.8031 -5.81555 -5.82799 -5.84065 -5.85155 -5.86255 -5.87357 -5.88462 -5.89577 -5.90523 -5.91478 -5.9243 -5.9338 -5.9434 -5.95135 -5.95936 -5.96738 -5.97544 -5.98354 -5.99005 -5.99669 -6.00329 -6.00987 -6.01656 -6.02172 -6.02692 -6.03213 -6.03737 -6.04265 -6.04643 -6.05029 -6.05412 -6.05794 -6.06181 -6.06424 -6.06669 -6.06916 -6.07165 -6.07415 -6.07523 -6.07638 -6.0775 -6.07861 -6.07978 -6.07957 -6.07936 -6.07917 -6.07903 -6.07888 -6.0774 -6.07599 -6.07454 -6.07307 -6.07166 -6.06896 -6.06629 -6.06363 -6.06101 -6.05841 -6.05457 -6.05079 -6.04697 -6.04313 -6.03935 -6.03438 -6.02942 -6.02447 -6.01957 -6.01466 -6.00861 -6.00264 -5.99663 -5.99061 -5.98466 -5.9776 -5.97058 -5.96358 -5.95661 -5.94967 -5.94165 -5.93374 -5.9258 -5.91784 -5.90996 -5.90106 -5.89221 -5.88337 -5.87457 -5.8658 -5.85604 -5.84643 -5.83678 -5.82712 -5.81759 -5.80711 -5.79672 -5.78635 -5.77601 -5.76575 -5.75459 -5.74355 -5.73248 -5.7214 -5.71042 -5.6986 -5.68683 -5.67507 -5.66334 -5.65166 -5.6392 -5.62678 -5.61432 -5.60184 -5.5894 -5.57625 -5.56313 -5.55003 -5.53697 -5.52394 -5.51024 -5.49664 -5.48299 -5.46932 -5.45573 -5.44155 -5.42731 -5.41309 -5.39891 -5.38467 -5.36988 -5.35514 -5.34037 -5.32559 -5.31086 -5.29559 -5.28037 -5.26516 -5.24998 -5.23482 -5.21917 -5.20365 -5.18811 -5.17256 -5.15713 -5.14123 -5.12544 -5.10966 -5.09391 -5.07827 -5.0622 -5.04625 -5.03026 -5.01427 -4.99839 -4.98215 -4.96595 -4.94977 -4.93362 -4.91751 -4.90109 -4.88475 -4.86838 -4.85201 -4.8357 -4.81913 -4.80262 -4.78611 -4.76963 -4.7532 -4.73653 -4.71999 -4.70341 -4.68683 -4.67036 -4.6537 -4.6371 -4.62051 -4.60395 -4.58744 -4.57078 -4.55421 -4.53762 -4.52102 -4.50451 -4.48787 -4.47132 -4.45478 -4.43826 -4.42184 -4.40531 -4.38883 -4.37232 -4.3558 -4.33932 -4.32281 -4.30624 -4.28967 -4.27314 -4.25654 -4.23995 -4.22336 -4.20676 -4.19015 -4.17352 -4.15689 -4.14035 -4.1238 -4.10726 -4.09079 -4.07431 -4.05792 -4.04152 -4.02512 -4.00881 -3.99253 -3.97625 -3.95999 -3.94373 -3.92749 -3.9113 -3.8952 -3.87909 -3.86298 -3.84695 -3.83096 -3.81512 -3.79929 -3.78346 -3.76777 -3.75213 -3.73663 -3.72111 -3.7056 -3.69024 -3.67493 -3.65968 -3.64444 -3.6292 -3.61402 -3.59894 -3.5839 -3.56886 -3.55381 -3.53879 -3.5239 -3.50902 -3.49415 -3.47928 -3.46442 -3.4497 -3.43503 -3.42035 -3.40566 -3.39103 -3.37653 -3.3621 -3.34767 -3.33325 -3.31887 -3.30463 -3.29048 -3.27632 -3.26216 -3.24808 -3.23413 -3.22028 -3.20644 -3.1926 -3.17886 -3.16526 -3.15166 -3.13805 -3.12445 -3.11082 -3.09738 -3.08388 -3.07039 -3.05689 -3.04334 -3.02998 -3.01662 -3.00326 -2.9899 -2.97653 -2.96336 -2.95024 -2.93712 -2.92399 -2.91093 -2.89806 -2.88524 -2.87243 -2.85962 -2.84691 -2.83436 -2.82188 -2.8094 -2.79692 -2.78453 -2.77228 -2.76014 -2.748 -2.73586 -2.72382 -2.7119 -2.7001 -2.68831 -2.67652 -2.66483 -2.65327 -2.64178 -2.63029 -2.6188 -2.60737 -2.59609 -2.58485 -2.57361 -2.56238 -2.55119 -2.54015 -2.52914 -2.51814 -2.50713 -2.49615 -2.48533 -2.47452 -2.46371 -2.45291 -2.44212 -2.43147 -2.42087 -2.41026 -2.39965 -2.38907 -2.37864 -2.36826 -2.35787 -2.34748 -2.33713 -2.32692 -2.31679 -2.30667 -2.29655 -2.2865 -2.27658 -2.26675 -2.25691 -2.24707 -2.23731 -2.22769 -2.21804 -2.2084 -2.19876 -2.1891 -2.17961 -2.17008 -2.16055 -2.151 -2.14142 -2.13201 -2.12258 -2.11316 -2.10373 -2.09427 -2.08499 -2.07572 -2.06645 -2.05718 -2.04792 -2.03882 -2.02977 -2.02072 -2.01169 -2.0027 -1.99384 -1.98507 -1.97629 -1.96751 -1.95881 -1.95022 -1.94172 -1.93324 -1.92476 -1.91638 -1.90809 -1.89988 -1.89169 -1.88349 -1.87539 -1.86737 -1.85942 -1.85147 -1.84353 -1.83566 -1.82788 -1.82016 -1.81245 -1.80474 -1.79708 -1.78955 -1.78203 -1.77452 -1.767 -1.7595 -1.75215 -1.74478 -1.73741 -1.73007 -1.72271 -1.71553 -1.7084 -1.70118 -1.69393 -1.68673 -1.67987 -1.6728 -1.66579 -1.65901 -1.65204 -1.64563 -1.63963 -1.63283 -1.62584 -1.61927 -1.61372 -1.60798 -1.60218 -1.5961 -1.58866 -1.56827 -1.55185 -1.53526 -1.52086 -1.51078 -1.49909 -1.48673 -1.47436 -1.46356 -1.45338 -1.42904 -1.40716 -1.38528 -1.36145 -1.33853 -1.33706 -1.33559 -1.33413 -1.33263 -1.33107 -1.30869 -1.28643 -1.26416 -1.2419 -1.21983 -1.19854 -1.1777 -1.15686 -1.13601 -1.11788 -1.07797 -1.0393 -1.00074 -0.962282 -0.922541 -0.889073 -0.855995 -0.822872 -0.789649 -0.759016 -0.703518 -0.64841 -0.593301 -0.537154 -0.477227 -0.436817 -0.39376 -0.350702 -0.307598 -0.262333 -0.239057 -0.213307 -0.187557 -0.161821 -0.136182 -0.124457 -0.110206 -0.0959555 -0.0817045 -0.0674407 -0.0590157 -0.0490571 -0.0390988 -0.0291408 -0.0132326