# vtk DataFile Version 2.0
track0
ASCII
DATASET POLYDATA
POINTS 15780 float
-1.001 -0.05 0.0011
-1.0008 -0.05 0.0011
-1.0006 -0.05 0.0011
-1.0004 -0.05 0.0011
-1.0002 -0.05 0.0011
-1 -0.05 0.0011
-0.9875 -0.05 0.0011
-0.975 -0.05 0.0011
-0.9625 -0.05 0.0011
-0.95 -0.05 0.0011
-0.9375 -0.05 0.00109999
-0.925 -0.05 0.00109999
-0.9125 -0.05 0.00109999
-0.9 -0.05 0.00109999
-0.8875 -0.05 0.00109999
-0.875 -0.05 0.00109999
-0.8625 -0.05 0.00109999
-0.85 -0.05 0.00109999
-0.8375 -0.05 0.00109998
-0.825 -0.0500001 0.00109998
-0.8125 -0.0500001 0.00109998
-0.8 -0.0500001 0.00109998
-0.7875 -0.0500001 0.00109998
-0.775 -0.0500001 0.00109998
-0.7625 -0.0500001 0.00109998
-0.75 -0.0500001 0.00109998
-0.7375 -0.0500001 0.00109997
-0.725 -0.0500001 0.00109997
-0.7125 -0.0500001 0.00109997
-0.7 -0.0500001 0.00109997
-0.6875 -0.0500001 0.00109997
-0.675 -0.0500001 0.00109997
-0.6625 -0.0500001 0.00109997
-0.65 -0.0500001 0.00109996
-0.6375 -0.0500001 0.00109996
-0.625 -0.0500001 0.00109996
-0.6125 -0.0500001 0.00109996
-0.6 -0.0500001 0.00109996
-0.5875 -0.0500001 0.00109996
-0.575 -0.0500001 0.00109996
-0.5625 -0.0500001 0.00109996
-0.55 -0.0500001 0.00109995
-0.5375 -0.0500001 0.00109995
-0.525 -0.0500001 0.00109995
-0.5125 -0.0500001 0.00109995
-0.5 -0.0500001 0.00109995
-0.4875 -0.0500001 0.00109995
-0.475 -0.0500001 0.00109995
-0.4625 -0.0500001 0.00109994
-0.45 -0.0500002 0.00109994
-0.4375 -0.0500002 0.00109994
-0.425 -0.0500002 0.00109994
-0.4125 -0.0500002 0.00109994
-0.4 -0.0500002 0.00109994
-0.3875 -0.0500002 0.00109994
-0.375 -0.0500002 0.00109994
-0.3625 -0.0500002 0.00109993
-0.35 -0.0500002 0.00109993
-0.3375 -0.0500002 0.00109993
-0.325 -0.0500002 0.00109993
-0.3125 -0.0500002 0.00109993
-0.3 -0.0500002 0.00109993
-0.2875 -0.0500002 0.00109993
-0.275 -0.0500002 0.00109993
-0.2625 -0.0500002 0.00109992
-0.25 -0.0500002 0.00109992
-0.2375 -0.0500002 0.00109992
-0.225 -0.0500002 0.00109992
-0.2125 -0.0500002 0.00109992
-0.2 -0.0500002 0.00109992
-0.1875 -0.0500002 0.00109992
-0.175 -0.0500002 0.00109992
-0.1625 -0.0500002 0.00109991
-0.15 -0.0500002 0.00109991
-0.1375 -0.0500002 0.00109991
-0.125 -0.0500002 0.00109991
-0.1125 -0.0500002 0.00109991
-0.1 -0.0500002 0.00109991
-0.0875 -0.0500002 0.00109991
-0.075 -0.0500002 0.00109991
-0.0625 -0.0500002 0.00109991
-0.05 -0.0500003 0.00109991
-0.0375 -0.0500003 0.0010999
-0.025 -0.0500003 0.0010999
-0.0125 -0.0500003 0.0010999
2.10607e-13 -0.0500003 0.0010999
0.0125 -0.0500003 0.0010999
0.025 -0.0500003 0.0010999
0.0375 -0.0500003 0.0010999
0.05 -0.0500003 0.0010999
0.0625 -0.0500003 0.0010999
0.075 -0.0500003 0.0010999
0.0875 -0.0500003 0.0010999
0.1 -0.0500003 0.00109989
0.1125 -0.0500003 0.00109989
0.125 -0.0500003 0.00109989
0.1375 -0.0500003 0.00109989
0.15 -0.0500003 0.00109989
0.1625 -0.0500003 0.00109989
0.175 -0.0500003 0.00109989
0.1875 -0.0500003 0.00109989
0.2 -0.0500003 0.00109989
0.2125 -0.0500003 0.00109989
0.225 -0.0500003 0.00109989
0.2375 -0.0500003 0.00109989
0.25 -0.0500003 0.00109989
0.2625 -0.0500003 0.00109988
0.275 -0.0500003 0.00109988
0.2875 -0.0500003 0.00109988
0.3 -0.0500003 0.00109988
0.3125 -0.0500003 0.00109988
0.325 -0.0500003 0.00109988
0.3375 -0.0500003 0.00109988
0.35 -0.0500003 0.00109988
0.3625 -0.0500003 0.00109988
0.375 -0.0500003 0.00109988
0.3875 -0.0500003 0.00109988
0.4 -0.0500004 0.00109988
0.4125 -0.0500004 0.00109988
0.425 -0.0500004 0.00109988
0.4375 -0.0500004 0.00109988
0.45 -0.0500004 0.00109988
0.4625 -0.0500004 0.00109988
0.475 -0.0500004 0.00109988
0.4875 -0.0500004 0.00109988
0.5 -0.0500004 0.00109988
0.5125 -0.0500004 0.00109988
0.525 -0.0500004 0.00109988
0.5375 -0.0500004 0.00109988
0.55 -0.0500004 0.00109988
0.5625 -0.0500004 0.00109988
0.575 -0.0500004 0.00109987
0.5875 -0.0500004 0.00109987
0.6 -0.0500004 0.00109987
0.6125 -0.0500004 0.00109987
0.625 -0.0500004 0.00109987
0.6375 -0.0500004 0.00109987
0.65 -0.0500004 0.00109987
0.6625 -0.0500004 0.00109987
0.675 -0.0500004 0.00109987
0.6875 -0.0500004 0.00109987
0.7 -0.0500004 0.00109987
0.7125 -0.0500004 0.00109987
0.725 -0.0500004 0.00109987
0.7375 -0.0500004 0.00109987
0.75 -0.0500004 0.00109987
0.7625 -0.0500004 0.00109987
0.775 -0.0500004 0.00109987
0.7875 -0.0500004 0.00109987
0.8 -0.0500004 0.00109987
0.8125 -0.0500004 0.00109987
0.825 -0.0500004 0.00109987
0.8375 -0.0500004 0.00109987
0.85 -0.0500004 0.00109987
0.8625 -0.0500004 0.00109987
0.875 -0.0500004 0.00109987
0.8875 -0.0500004 0.00109987
0.9 -0.0500004 0.00109987
0.9125 -0.0500005 0.00109988
0.925 -0.0500005 0.00109988
0.9375 -0.0500005 0.00109988
0.95 -0.0500005 0.00109988
0.9625 -0.0500005 0.00109988
0.975 -0.0500005 0.00109988
0.9875 -0.0500005 0.00109988
1 -0.0500005 0.00109988
1.0125 -0.0500005 0.00109988
1.025 -0.0500005 0.00109988
1.0375 -0.0500005 0.00109988
1.05 -0.0500005 0.00109988
1.0625 -0.0500005 0.00109988
1.075 -0.0500005 0.00109988
1.0875 -0.0500005 0.00109988
1.1 -0.0500005 0.00109988
1.1125 -0.0500005 0.00109988
1.125 -0.0500005 0.00109988
1.1375 -0.0500005 0.00109988
1.15 -0.0500005 0.00109988
1.1625 -0.0500005 0.00109988
1.175 -0.0500005 0.00109988
1.1875 -0.0500005 0.00109988
1.2 -0.0500005 0.00109988
1.2125 -0.0500005 0.00109988
1.225 -0.0500005 0.00109988
1.2375 -0.0500005 0.00109989
1.25 -0.0500005 0.00109989
1.2625 -0.0500005 0.00109989
1.275 -0.0500005 0.00109989
1.2875 -0.0500005 0.00109989
1.3 -0.0500005 0.00109989
1.3125 -0.0500005 0.00109989
1.325 -0.0500005 0.00109989
1.3375 -0.0500005 0.00109989
1.35 -0.0500005 0.00109989
1.3625 -0.0500005 0.00109989
1.375 -0.0500005 0.00109989
1.3875 -0.0500005 0.00109989
1.4 -0.0500005 0.00109989
1.4125 -0.0500005 0.00109989
1.425 -0.0500005 0.00109989
1.4375 -0.0500005 0.0010999
1.45 -0.0500005 0.0010999
1.4625 -0.0500005 0.0010999
1.475 -0.0500005 0.0010999
1.4875 -0.0500005 0.0010999
1.5 -0.0500006 0.0010999
1.5125 -0.0500006 0.0010999
1.525 -0.0500006 0.0010999
1.5375 -0.0500006 0.0010999
1.55 -0.0500006 0.0010999
1.5625 -0.0500006 0.0010999
1.575 -0.0500006 0.0010999
1.5875 -0.0500006 0.0010999
1.6 -0.0500006 0.0010999
1.6125 -0.0500006 0.00109991
1.625 -0.0500006 0.00109991
1.6375 -0.0500006 0.00109991
1.65 -0.0500006 0.00109991
1.6625 -0.0500006 0.00109991
1.675 -0.0500006 0.00109991
1.6875 -0.0500006 0.00109991
1.7 -0.0500006 0.00109991
1.7125 -0.0500006 0.00109991
1.725 -0.0500006 0.00109991
1.7375 -0.0500006 0.00109991
1.75 -0.0500006 0.00109991
1.7625 -0.0500006 0.00109992
1.775 -0.0500006 0.00109992
1.7875 -0.0500006 0.00109992
1.8 -0.0500006 0.00109992
1.8125 -0.0500006 0.00109992
1.825 -0.0500006 0.00109992
1.8375 -0.0500006 0.00109992
1.85 -0.0500006 0.00109992
1.8625 -0.0500006 0.00109992
1.875 -0.0500006 0.00109992
1.8875 -0.0500006 0.00109992
1.9 -0.0500006 0.00109992
1.9125 -0.0500006 0.00109993
1.925 -0.0500006 0.00109993
1.9375 -0.0500006 0.00109993
1.95 -0.0500006 0.00109993
1.9625 -0.0500006 0.00109993
1.975 -0.0500006 0.00109993
1.9875 -0.0500006 0.00109993
2 -0.0500006 0.00109993
2.0125 -0.0500006 0.00109993
2.025 -0.0500006 0.00109993
2.0375 -0.0500006 0.00109993
2.05 -0.0500006 0.00109993
2.0625 -0.0500006 0.00109994
2.075 -0.0500006 0.00109994
2.0875 -0.0500006 0.00109994
2.1 -0.0500006 0.00109994
2.1125 -0.0500006 0.00109994
2.125 -0.0500006 0.00109994
2.1375 -0.0500006 0.00109994
2.15 -0.0500006 0.00109994
2.1625 -0.0500006 0.00109994
2.175 -0.0500007 0.00109994
2.1875 -0.0500007 0.00109994
2.2 -0.0500007 0.00109994
2.2125 -0.0500007 0.00109994
2.225 -0.0500007 0.00109995
2.2375 -0.0500007 0.00109995
2.25 -0.0500007 0.00109995
2.2625 -0.0500007 0.00109995
2.275 -0.0500007 0.00109995
2.2875 -0.0500007 0.00109995
2.3 -0.0500007 0.00109995
2.3125 -0.0500007 0.00109995
2.325 -0.0500007 0.00109995
2.3375 -0.0500007 0.00109995
2.35 -0.0500007 0.00109995
2.3625 -0.0500007 0.00109995
2.375 -0.0500007 0.00109995
2.3875 -0.0500007 0.00109996
2.4 -0.0500007 0.00109996
2.4125 -0.0500007 0.00109996
2.425 -0.0500007 0.00109996
2.4375 -0.0500007 0.00109996
2.45 -0.0500007 0.00109996
2.4625 -0.0500007 0.00109996
2.475 -0.0500007 0.00109996
2.4875 -0.0500007 0.00109996
2.5 -0.0500007 0.00109996
2.5125 -0.0500007 0.00109996
2.525 -0.0500007 0.00109996
2.5375 -0.0500007 0.00109996
2.55 -0.0500007 0.00109996
2.5625 -0.0500007 0.00109997
2.575 -0.0500007 0.00109997
2.5875 -0.0500007 0.00109997
2.6 -0.0500007 0.00109997
2.6125 -0.0500007 0.00109997
2.625 -0.0500007 0.00109997
2.6375 -0.0500007 0.00109997
2.65 -0.0500007 0.00109997
2.6625 -0.0500007 0.00109997
2.675 -0.0500007 0.00109997
2.6875 -0.0500007 0.00109997
2.7 -0.0500007 0.00109997
2.7125 -0.0500007 0.00109997
2.725 -0.0500007 0.00109997
2.7375 -0.0500007 0.00109997
2.75 -0.0500007 0.00109997
2.7625 -0.0500007 0.00109998
2.775 -0.0500007 0.00109998
2.7875 -0.0500007 0.00109998
2.8 -0.0500007 0.00109998
2.8125 -0.0500007 0.00109998
2.825 -0.0500007 0.00109998
2.8375 -0.0500007 0.00109998
2.85 -0.0500007 0.00109998
2.8625 -0.0500008 0.00109998
2.875 -0.0500008 0.00109998
2.8875 -0.0500008 0.00109998
2.9 -0.0500008 0.00109998
2.9125 -0.0500008 0.00109998
2.925 -0.0500008 0.00109998
2.9375 -0.0500008 0.00109998
2.95 -0.0500008 0.00109998
2.9625 -0.0500008 0.00109998
2.975 -0.0500008 0.00109998
2.9875 -0.0500008 0.00109998
3 -0.0500008 0.00109998
3.0125 -0.0500008 0.00109999
3.025 -0.0500008 0.00109999
3.0375 -0.0500008 0.00109999
3.05 -0.0500008 0.00109999
3.0625 -0.0500008 0.00109999
3.075 -0.0500008 0.00109999
3.0875 -0.0500008 0.00109999
3.1 -0.0500008 0.00109999
3.1125 -0.0500008 0.00109999
3.125 -0.0500008 0.00109999
3.1375 -0.0500008 0.00109999
3.15 -0.0500008 0.00109999
3.1625 -0.0500008 0.00109999
3.175 -0.0500008 0.00109999
3.1875 -0.0500008 0.00109999
3.2 -0.0500008 0.00109999
3.2125 -0.0500008 0.00109999
3.225 -0.0500008 0.00109999
3.2375 -0.0500008 0.00109999
3.25 -0.0500008 0.00109999
3.2625 -0.0500008 0.00109999
3.275 -0.0500008 0.00109999
3.2875 -0.0500008 0.00109999
3.3 -0.0500008 0.00109999
3.3125 -0.0500008 0.00109999
3.325 -0.0500008 0.00109999
3.3375 -0.0500008 0.00109999
3.35 -0.0500008 0.0011
3.3625 -0.0500008 0.0011
[...]
POINT_DATA 15780
 FIELD attributes 1
U 3 15780 float
30.0002 	-7.01774e-06 	-6.30588e-06 30.0002 	-6.84325e-06 	-6.51454e-06 30.0002 	-6.66877e-06 	-6.72321e-06 30.0002 	-6.49429e-06 	-6.93188e-06 30.0002 	-6.31981e-06 	-7.14054e-06 30.0002 	-6.14532e-06 	-7.34921e-06 30.0004 	-1.23849e-05 	-1.26099e-06 30.0004 	-1.23849e-05 	-1.26099e-06 30.0004 	-1.23849e-05 	-1.26099e-06 30.0004 	-1.23849e-05 	-1.26099e-06 30.0002 	-7.0412e-08 	-6.84367e-06 30.0005 	-1.07088e-05 	-1.68704e-06 30.0005 	-1.07088e-05 	-1.68704e-06 30.0005 	-1.07088e-05 	-1.68704e-06 30.0005 	-1.07088e-05 	-1.68704e-06 30.0002 	-7.20969e-08 	-6.59608e-06 30.0005 	-9.95827e-06 	-2.08022e-06 30.0005 	-9.95826e-06 	-2.08022e-06 30.0005 	-9.95825e-06 	-2.08022e-06 30.0005 	-9.95824e-06 	-2.08022e-06 30.0003 	-4.59298e-06 	-6.24726e-06 30.0005 	-9.69151e-06 	-2.34895e-06 30.0005 	-9.6915e-06 	-2.34895e-06 30.0005 	-9.69149e-06 	-2.34894e-06 30.0005 	-9.69148e-06 	-2.34894e-06 30.0003 	-7.57066e-08 	-6.57616e-06 30.0005 	-9.52335e-06 	-2.49782e-06 30.0005 	-9.52334e-06 	-2.49782e-06 30.0005 	-9.52333e-06 	-2.49782e-06 30.0005 	-9.52332e-06 	-2.49781e-06 30.0003 	-7.74737e-08 	-6.52627e-06 30.0005 	-9.38699e-06 	-2.55606e-06 30.0005 	-9.38698e-06 	-2.55606e-06 30.0005 	-9.38697e-06 	-2.55606e-06 30.0005 	-9.38696e-06 	-2.55606e-06 30.0003 	-4.26682e-06 	-6.08529e-06 30.0005 	-9.27957e-06 	-2.5583e-06 30.0005 	-9.27956e-06 	-2.55829e-06 30.0005 	-9.27955e-06 	-2.55829e-06 30.0005 	-9.27955e-06 	-2.55829e-06 30.0003 	-4.19923e-06 	-5.9779e-06 30.0006 	-9.18741e-06 	-2.53043e-06 30.0006 	-9.1874e-06 	-2.53043e-06 30.0006 	-9.18739e-06 	-2.53043e-06 30.0006 	-9.18738e-06 	-2.53042e-06 30.0003 	-8.27957e-08 	-6.20127e-06 30.0006 	-9.09734e-06 	-2.48118e-06 30.0006 	-9.09734e-06 	-2.48118e-06 30.0006 	-9.09733e-06 	-2.48118e-06 30.0006 	-9.09732e-06 	-2.48118e-06 30.0003 	-8.45487e-08 	-6.05424e-06 30.0006 	-9.00489e-06 	-2.41361e-06 30.0006 	-9.00488e-06 	-2.41361e-06 30.0006 	-9.00487e-06 	-2.41361e-06 30.0006 	-9.00486e-06 	-2.41361e-06 30.0003 	-8.63001e-08 	-5.88783e-06 30.0006 	-8.90874e-06 	-2.32973e-06 30.0006 	-8.90873e-06 	-2.32973e-06 30.0006 	-8.90872e-06 	-2.32972e-06 30.0006 	-8.90872e-06 	-2.32972e-06 30.0003 	-3.93783e-06 	-5.36347e-06 30.0006 	-8.80869e-06 	-2.23275e-06 30.0006 	-8.80868e-06 	-2.23274e-06 30.0006 	-8.80868e-06 	-2.23274e-06 30.0006 	-8.80867e-06 	-2.23274e-06 30.0003 	-3.86404e-06 	-5.16476e-06 30.0006 	-8.70442e-06 	-2.12414e-06 30.0006 	-8.70441e-06 	-2.12414e-06 30.0006 	-8.7044e-06 	-2.12413e-06 30.0006 	-8.7044e-06 	-2.12413e-06 30.0003 	-9.15594e-08 	-5.28458e-06 30.0006 	-8.59622e-06 	-2.00508e-06 30.0006 	-8.59621e-06 	-2.00508e-06 30.0006 	-8.5962e-06 	-2.00508e-06 30.0006 	-8.5962e-06 	-2.00508e-06 30.0003 	-3.70442e-06 	-4.7194e-06 30.0007 	-8.48483e-06 	-1.87668e-06 30.0007 	-8.48483e-06 	-1.87668e-06 30.0007 	-8.48482e-06 	-1.87668e-06 30.0007 	-8.48481e-06 	-1.87668e-06 30.0003 	-3.61931e-06 	-4.47431e-06 30.0007 	-8.37148e-06 	-1.73884e-06 30.0007 	-8.37147e-06 	-1.73884e-06 30.0007 	-8.37147e-06 	-1.73884e-06 30.0007 	-8.37146e-06 	-1.73884e-06 30.0004 	-9.67603e-08 	-4.54319e-06 30.0007 	-8.25987e-06 	-1.59804e-06 30.0007 	-8.25986e-06 	-1.59803e-06 30.0007 	-8.25986e-06 	-1.59803e-06 30.0007 	-8.25985e-06 	-1.59803e-06 30.0004 	-9.84794e-08 	-4.27124e-06 30.0007 	-8.14785e-06 	-1.46323e-06 30.0007 	-8.14784e-06 	-1.46323e-06 30.0007 	-8.14784e-06 	-1.46323e-06 30.0007 	-8.14783e-06 	-1.46323e-06 30.0004 	-1.00194e-07 	-3.98927e-06 30.0007 	-8.01974e-06 	-1.32072e-06 30.0007 	-8.01974e-06 	-1.32072e-06 30.0007 	-8.01974e-06 	-1.32072e-06 30.0007 	-8.01973e-06 	-1.32072e-06 30.0004 	-3.25088e-06 	-3.37795e-06 30.0007 	-7.88092e-06 	-1.16801e-06 30.0007 	-7.88092e-06 	-1.16801e-06 30.0007 	-7.88092e-06 	-1.16801e-06 30.0007 	-7.88091e-06 	-1.16801e-06 30.0004 	-1.03589e-07 	-3.40288e-06 30.0007 	-7.74497e-06 	-1.00788e-06 30.0007 	-7.74496e-06 	-1.00788e-06 30.0007 	-7.74496e-06 	-1.00788e-06 30.0007 	-7.74496e-06 	-1.00788e-06 30.0004 	-1.05282e-07 	-3.10327e-06 30.0007 	-7.61081e-06 	-8.41862e-07 30.0007 	-7.61081e-06 	-8.41862e-07 30.0007 	-7.6108e-06 	-8.41862e-07 30.0007 	-7.6108e-06 	-8.41861e-07 30.0004 	-2.93166e-06 	-2.48789e-06 30.0007 	-7.47501e-06 	-6.70208e-07 30.0007 	-7.47501e-06 	-6.70208e-07 30.0007 	-7.47501e-06 	-6.70208e-07 30.0007 	-7.47501e-06 	-6.70208e-07 30.0004 	-2.82517e-06 	-2.18313e-06 30.0007 	-7.34284e-06 	-4.97053e-07 30.0007 	-7.34284e-06 	-4.97053e-07 30.0007 	-7.34284e-06 	-4.97053e-07 30.0007 	-7.34284e-06 	-4.97053e-07 30.0004 	-1.10319e-07 	-2.17111e-06 30.0007 	-7.21502e-06 	-3.17326e-07 30.0007 	-7.21502e-06 	-3.17326e-07 30.0007 	-7.21502e-06 	-3.17325e-07 30.0007 	-7.21502e-06 	-3.17325e-07 30.0004 	-1.11979e-07 	-1.85337e-06 30.0007 	-7.09825e-06 	-1.38222e-07 30.0007 	-7.09825e-06 	-1.38222e-07 30.0007 	-7.09825e-06 	-1.38222e-07 30.0007 	-7.09825e-06 	-1.38222e-07 30.0004 	-1.13623e-07 	-1.54903e-06 30.0007 	-6.9849e-06 	4.0845e-08 30.0007 	-6.9849e-06 	4.0845e-08 30.0007 	-6.9849e-06 	4.0845e-08 30.0007 	-6.9849e-06 	4.0845e-08 30.0004 	-2.43866e-06 	-9.58513e-07 30.0007 	-6.87128e-06 	2.1466e-07 30.0007 	-6.87128e-06 	2.1466e-07 30.0007 	-6.87128e-06 	2.1466e-07 30.0007 	-6.87128e-06 	2.1466e-07 30.0004 	-2.34703e-06 	-6.82311e-07 30.0007 	-6.75308e-06 	3.90711e-07 30.0007 	-6.75308e-06 	3.90711e-07 30.0007 	-6.75308e-06 	3.90711e-07 30.0007 	-6.75308e-06 	3.90711e-07 30.0004 	-1.18536e-07 	-7.09774e-07 30.0007 	-6.64253e-06 	5.64363e-07 30.0007 	-6.64253e-06 	5.64363e-07 30.0007 	-6.64254e-06 	5.64363e-07 30.0007 	-6.64254e-06 	5.64363e-07 30.0004 	-2.16665e-06 	-1.45453e-07 30.0007 	-6.53553e-06 	7.2739e-07 30.0007 	-6.53553e-06 	7.2739e-07 30.0007 	-6.53553e-06 	7.2739e-07 30.0007 	-6.53554e-06 	7.2739e-07 30.0004 	-2.08097e-06 	1.13824e-07 30.0007 	-6.4302e-06 	8.78829e-07 30.0007 	-6.43021e-06 	8.7883e-07 30.0007 	-6.43021e-06 	8.7883e-07 30.0007 	-6.43021e-06 	8.7883e-07 30.0004 	-1.23412e-07 	7.05717e-08 30.0007 	-6.32259e-06 	1.01778e-06 30.0007 	-6.3226e-06 	1.01778e-06 30.0007 	-6.3226e-06 	1.01778e-06 30.0007 	-6.3226e-06 	1.01778e-06 30.0004 	-1.24993e-07 	3.158e-07 30.0007 	-6.21621e-06 	1.14061e-06 30.0007 	-6.21621e-06 	1.14061e-06 30.0007 	-6.21622e-06 	1.14061e-06 30.0007 	-6.21622e-06 	1.14061e-06 30.0004 	-1.26572e-07 	5.45517e-07 30.0007 	-6.11493e-06 	1.25631e-06 30.0007 	-6.11493e-06 	1.25631e-06 30.0007 	-6.11494e-06 	1.25631e-06 30.0007 	-6.11494e-06 	1.25631e-06 30.0004 	-1.76414e-06 	1.03206e-06 30.0007 	-6.02219e-06 	1.37126e-06 30.0007 	-6.02219e-06 	1.37126e-06 30.0007 	-6.0222e-06 	1.37126e-06 30.0007 	-6.0222e-06 	1.37126e-06 30.0004 	-1.29665e-07 	9.36934e-07 30.0007 	-5.94252e-06 	1.48849e-06 30.0007 	-5.94252e-06 	1.48849e-06 30.0007 	-5.94253e-06 	1.48849e-06 30.0007 	-5.94253e-06 	1.48849e-06 30.0004 	-1.31164e-07 	1.10455e-06 30.0007 	-5.8713e-06 	1.59288e-06 30.0007 	-5.8713e-06 	1.59288e-06 30.0007 	-5.87131e-06 	1.59288e-06 30.0007 	-5.87131e-06 	1.59288e-06 30.0004 	-1.59125e-06 	1.53876e-06 30.0007 	-5.80168e-06 	1.67931e-06 30.0007 	-5.80169e-06 	1.67931e-06 30.0007 	-5.80169e-06 	1.67931e-06 30.0007 	-5.80169e-06 	1.67931e-06 30.0003 	-1.54404e-06 	1.67821e-06 30.0007 	-5.7336e-06 	1.7501e-06 30.0007 	-5.7336e-06 	1.7501e-06 30.0007 	-5.73361e-06 	1.7501e-06 30.0007 	-5.73361e-06 	1.7501e-06 30.0003 	-1.3587e-07 	1.52472e-06 30.0006 	-5.66846e-06 	1.8098e-06 30.0006 	-5.66846e-06 	1.8098e-06 30.0006 	-5.66847e-06 	1.8098e-06 30.0006 	-5.66847e-06 	1.8098e-06 30.0003 	-1.37427e-07 	1.63226e-06 30.0006 	-5.60838e-06 	1.85993e-06 30.0006 	-5.60839e-06 	1.85993e-06 30.0006 	-5.60839e-06 	1.85993e-06 30.0006 	-5.60839e-06 	1.85993e-06 30.0003 	-1.38897e-07 	1.72399e-06 30.0006 	-5.55408e-06 	1.90042e-06 30.0006 	-5.55409e-06 	1.90043e-06 30.0006 	-5.55409e-06 	1.90043e-06 30.0006 	-5.5541e-06 	1.90043e-06 30.0003 	-1.38873e-06 	2.07103e-06 30.0006 	-5.50525e-06 	1.93109e-06 30.0006 	-5.50525e-06 	1.93109e-06 30.0006 	-5.50526e-06 	1.93109e-06 30.0006 	-5.50526e-06 	1.93109e-06 30.0003 	-1.3617e-06 	2.13096e-06 30.0006 	-5.46151e-06 	1.95182e-06 30.0006 	-5.46152e-06 	1.95183e-06 30.0006 	-5.46152e-06 	1.95183e-06 30.0006 	-5.46152e-06 	1.95183e-06 30.0003 	-1.42944e-07 	1.90825e-06 30.0006 	-5.42273e-06 	1.96277e-06 30.0006 	-5.42273e-06 	1.96277e-06 30.0006 	-5.42274e-06 	1.96277e-06 30.0006 	-5.42274e-06 	1.96278e-06 30.0003 	-1.32332e-06 	2.20766e-06 30.0006 	-5.38877e-06 	1.9643e-06 30.0006 	-5.38877e-06 	1.96431e-06 30.0006 	-5.38878e-06 	1.96431e-06 30.0006 	-5.38878e-06 	1.96431e-06 30.0003 	-1.31155e-06 	2.22554e-06 30.0006 	-5.3596e-06 	1.95691e-06 30.0006 	-5.3596e-06 	1.95691e-06 30.0006 	-5.3596e-06 	1.95691e-06 30.0006 	-5.35961e-06 	1.95691e-06 30.0003 	-1.46839e-07 	1.96616e-06 30.0005 	-5.33513e-06 	1.94111e-06 30.0005 	-5.33513e-06 	1.94111e-06 30.0005 	-5.33513e-06 	1.94111e-06 30.0005 	-5.33514e-06 	1.94112e-06 30.0003 	-1.48101e-07 	1.96056e-06 30.0005 	-5.31513e-06 	1.91792e-06 30.0005 	-5.31514e-06 	1.91792e-06 30.0005 	-5.31514e-06 	1.91792e-06 30.0005 	-5.31515e-06 	1.91793e-06 30.0003 	-1.49318e-07 	1.94423e-06 30.0005 	-5.29954e-06 	1.88799e-06 30.0005 	-5.29955e-06 	1.88799e-06 30.0005 	-5.29955e-06 	1.888e-06 30.0005 	-5.29955e-06 	1.888e-06 30.0003 	-1.30901e-06 	2.179e-06 30.0005 	-5.2882e-06 	1.8519e-06 30.0005 	-5.28821e-06 	1.8519e-06 30.0005 	-5.28821e-06 	1.8519e-06 30.0005 	-5.28822e-06 	1.8519e-06 30.0003 	-1.51675e-07 	1.88229e-06 30.0005 	-5.28094e-06 	1.81008e-06 30.0005 	-5.28094e-06 	1.81008e-06 30.0005 	-5.28094e-06 	1.81008e-06 30.0005 	-5.28095e-06 	1.81008e-06 30.0003 	-1.52801e-07 	1.83817e-06 30.0005 	-5.2775e-06 	1.76316e-06 30.0005 	-5.2775e-06 	1.76316e-06 30.0005 	-5.2775e-06 	1.76316e-06 30.0005 	-5.27751e-06 	1.76316e-06 30.0003 	-1.34824e-06 	2.04409e-06 30.0005 	-5.27768e-06 	1.71162e-06 30.0005 	-5.27768e-06 	1.71162e-06 30.0005 	-5.27768e-06 	1.71162e-06 30.0005 	-5.27769e-06 	1.71163e-06 30.0003 	-1.36831e-06 	1.98425e-06 30.0005 	-5.28126e-06 	1.65599e-06 30.0005 	-5.28126e-06 	1.65599e-06 30.0005 	-5.28126e-06 	1.65599e-06 30.0005 	-5.28127e-06 	1.656e-06 30.0002 	-1.5603e-07 	1.66281e-06 30.0005 	-5.28806e-06 	1.59668e-06 30.0005 	-5.28806e-06 	1.59668e-06 30.0005 	-5.28807e-06 	1.59668e-06 30.0005 	-5.28807e-06 	1.59668e-06 30.0002 	-1.57089e-07 	1.59256e-06 30.0004 	-5.29802e-06 	1.53416e-06 30.0004 	-5.29802e-06 	1.53416e-06 30.0004 	-5.29803e-06 	1.53416e-06 30.0004 	-5.29803e-06 	1.53416e-06 30.0002 	-1.58168e-07 	1.5177e-06 30.0004 	-5.31097e-06 	1.4689e-06 30.0004 	-5.31097e-06 	1.4689e-06 30.0004 	-5.31098e-06 	1.4689e-06 30.0004 	-5.31098e-06 	1.4689e-06 30.0002 	-1.47998e-06 	1.69064e-06 30.0004 	-5.32652e-06 	1.40145e-06 30.0004 	-5.32653e-06 	1.40145e-06 30.0004 	-5.32653e-06 	1.40145e-06 30.0004 	-5.32653e-06 	1.40145e-06 30.0002 	-1.51451e-06 	1.60715e-06 30.0004 	-5.34443e-06 	1.3322e-06 30.0004 	-5.34443e-06 	1.33221e-06 30.0004 	-5.34444e-06 	1.33221e-06 30.0004 	-5.34444e-06 	1.33221e-06 30.0002 	-1.61437e-07 	1.27188e-06 30.0004 	-5.36446e-06 	1.26149e-06 30.0004 	-5.36446e-06 	1.26149e-06 30.0004 	-5.36446e-06 	1.26149e-06 30.0004 	-5.36447e-06 	1.26149e-06 30.0002 	-1.58985e-06 	1.43252e-06 30.0004 	-5.38628e-06 	1.18982e-06 30.0004 	-5.38629e-06 	1.18982e-06 30.0004 	-5.38629e-06 	1.18982e-06 30.0004 	-5.38629e-06 	1.18982e-06 30.0002 	-1.63034e-06 	1.34244e-06 30.0004 	-5.40992e-06 	1.1175e-06 30.0004 	-5.40992e-06 	1.1175e-06 30.0004 	-5.40992e-06 	1.1175e-06 30.0004 	-5.40992e-06 	1.1175e-06 30.0002 	-1.64466e-07 	1.0061e-06 30.0004 	-5.43504e-06 	1.04482e-06 30.0004 	-5.43505e-06 	1.04482e-06 30.0004 	-5.43505e-06 	1.04482e-06 30.0004 	-5.43505e-06 	1.04482e-06 30.0002 	-1.65413e-07 	9.15633e-07 30.0004 	-5.46071e-06 	9.72286e-07 30.0004 	-5.46072e-06 	9.72286e-07 30.0004 	-5.46072e-06 	9.72287e-07 30.0004 	-5.46072e-06 	9.72287e-07 30.0002 	-1.6632e-07 	8.25012e-07 30.0004 	-5.48678e-06 	8.9951e-07 30.0004 	-5.48678e-06 	8.9951e-07 30.0004 	-5.48678e-06 	8.9951e-07 30.0004 	-5.48678e-06 	8.99511e-07 30.0002 	-1.80725e-06 	9.75444e-07 30.0004 	-5.51358e-06 	8.25977e-07 30.0004 	-5.51358e-06 	8.25977e-07 30.0004 	-5.51358e-06 	8.25977e-07 30.0004 	-5.51358e-06 	8.25977e-07 30.0002 	-1.68036e-07 	6.43647e-07 30.0003 	-5.54333e-06 	7.52017e-07 30.0003 	-5.54333e-06 	7.52017e-07 30.0003 	-5.54334e-06 	7.52018e-07 30.0003 	-5.54334e-06 	7.52018e-07 30.0002 	-1.6886e-07 	5.52654e-07 30.0003 	-5.57782e-06 	6.77474e-07 30.0003 	-5.57782e-06 	6.77474e-07 30.0003 	-5.57782e-06 	6.77474e-07 30.0003 	-5.57783e-06 	6.77474e-07 30.0002 	-1.95563e-06 	7.01339e-07 30.0003 	-5.61469e-06 	6.0441e-07 30.0003 	-5.61469e-06 	6.04411e-07 30.0003 	-5.61469e-06 	6.04411e-07 30.0003 	-5.61469e-06 	6.04411e-07 30.0002 	-2.00782e-06 	6.11708e-07 30.0003 	-5.65077e-06 	5.34692e-07 30.0003 	-5.65078e-06 	5.34692e-07 30.0003 	-5.65078e-06 	5.34692e-07 30.0003 	-5.65078e-06 	5.34693e-07 30.0002 	-1.71356e-07 	2.8096e-07 30.0003 	-5.68189e-06 	4.67668e-07 30.0003 	-5.68189e-06 	4.67668e-07 30.0003 	-5.68189e-06 	4.67668e-07 30.0003 	-5.68189e-06 	4.67668e-07 30.0002 	-1.72186e-07 	1.97346e-07 30.0003 	-5.71032e-06 	4.03223e-07 30.0003 	-5.71032e-06 	4.03223e-07 30.0003 	-5.71032e-06 	4.03223e-07 30.0003 	-5.71032e-06 	4.03223e-07 30.0002 	-1.72987e-07 	1.16416e-07 30.0003 	-5.7385e-06 	3.39262e-07 30.0003 	-5.7385e-06 	3.39263e-07 30.0003 	-5.7385e-06 	3.39263e-07 30.0003 	-5.7385e-06 	3.39263e-07 30.0002 	-2.20109e-06 	2.74109e-07 30.0003 	-5.76648e-06 	2.75297e-07 30.0003 	-5.76648e-06 	2.75297e-07 30.0003 	-5.76648e-06 	2.75297e-07 30.0003 	-5.76648e-06 	2.75297e-07 30.0002 	-2.24801e-06 	1.96366e-07 30.0003 	-5.79321e-06 	2.1081e-07 30.0003 	-5.79321e-06 	2.1081e-07 30.0003 	-5.79321e-06 	2.1081e-07 30.0003 	-5.79321e-06 	2.1081e-07 30.0002 	-1.75154e-07 	-1.09132e-07 30.0003 	-5.82121e-06 	1.48799e-07 30.0003 	-5.82121e-06 	1.48799e-07 30.0003 	-5.82121e-06 	1.48799e-07 30.0003 	-5.82121e-06 	1.48799e-07 30.0002 	-2.34178e-06 	4.46813e-08 30.0003 	-5.85047e-06 	9.00056e-08 30.0003 	-5.85047e-06 	9.00056e-08 30.0003 	-5.85047e-06 	9.00056e-08 30.0003 	-5.85047e-06 	9.00056e-08 30.0002 	-2.38909e-06 	-2.90936e-08 30.0003 	-5.8809e-06 	3.48345e-08 30.0003 	-5.8809e-06 	3.48345e-08 30.0003 	-5.8809e-06 	3.48345e-08 30.0003 	-5.8809e-06 	3.48345e-08 30.0002 	-1.77155e-07 	-3.3076e-07 30.0003 	-5.91262e-06 	-1.70525e-08 30.0003 	-5.91262e-06 	-1.70525e-08 30.0003 	-5.91262e-06 	-1.70525e-08 30.0003 	-5.91262e-06 	-1.70525e-08 30.0002 	-1.7778e-07 	-4.01796e-07 30.0003 	-5.94576e-06 	-6.90321e-08 30.0003 	-5.94576e-06 	-6.90321e-08 30.0003 	-5.94576e-06 	-6.90321e-08 30.0003 	-5.94576e-06 	-6.90321e-08 30.0002 	-1.78389e-07 	-4.67068e-07 30.0003 	-5.97772e-06 	-1.23292e-07 30.0003 	-5.97772e-06 	-1.23292e-07 30.0003 	-5.97772e-06 	-1.23292e-07 30.0003 	-5.97772e-06 	-1.23292e-07 30.0002 	-2.58062e-06 	-3.0137e-07 30.0003 	-6.00551e-06 	-1.77936e-07 30.0003 	-6.00551e-06 	-1.77936e-07 30.0003 	-6.00551e-06 	-1.77936e-07 30.0003 	-6.00551e-06 	-1.77936e-07 30.0002 	-1.79581e-07 	-5.84881e-07 30.0003 	-6.02964e-06 	-2.29195e-07 30.0003 	-6.02964e-06 	-2.29195e-07 30.0003 	-6.02964e-06 	-2.29195e-07 30.0003 	-6.02964e-06 	-2.29195e-07 30.0002 	-1.80175e-07 	-6.42144e-07 30.0003 	-6.05289e-06 	-2.76157e-07 30.0003 	-6.05289e-06 	-2.76157e-07 30.0003 	-6.05289e-06 	-2.76157e-07 30.0003 	-6.05289e-06 	-2.76157e-07 30.0002 	-2.7087e-06 	-4.78972e-07 30.0003 	-6.07676e-06 	-3.19635e-07 30.0003 	-6.07676e-06 	-3.19635e-07 30.0003 	-6.07676e-06 	-3.19635e-07 30.0003 	-6.07676e-06 	-3.19635e-07 30.0002 	-2.74974e-06 	-5.34016e-07 30.0003 	-6.10099e-06 	-3.61171e-07 30.0003 	-6.10099e-06 	-3.61171e-07 30.0003 	-6.10099e-06 	-3.61171e-07 30.0003 	-6.10099e-06 	-3.6117e-07 30.0002 	-1.81927e-07 	-8.03784e-07 30.0003 	-6.12504e-06 	-4.01367e-07 30.0003 	-6.12504e-06 	-4.01367e-07 30.0003 	-6.12504e-06 	-4.01367e-07 30.0003 	-6.12504e-06 	-4.01367e-07 30.0001 	-1.82481e-07 	-8.53104e-07 30.0003 	-6.14845e-06 	-4.40361e-07 30.0003 	-6.14845e-06 	-4.40361e-07 30.0003 	-6.14845e-06 	-4.40361e-07 30.0003 	-6.14845e-06 	-4.40361e-07 30.0001 	-1.83022e-07 	-9.00313e-07 30.0003 	-6.17112e-06 	-4.77978e-07 30.0003 	-6.17112e-06 	-4.77978e-07 30.0003 	-6.17112e-06 	-4.77978e-07 30.0003 	-6.17111e-06 	-4.77978e-07 30.0001 	-2.90925e-06 	-7.31447e-07 30.0003 	-6.19292e-06 	-5.14193e-07 30.0003 	-6.19292e-06 	-5.14193e-07 30.0003 	-6.19292e-06 	-5.14193e-07 30.0003 	-6.19292e-06 	-5.14193e-07 30.0001 	-2.94713e-06 	-7.75575e-07 30.0003 	-6.21384e-06 	-5.48817e-07 30.0003 	-6.21384e-06 	-5.48817e-07 30.0003 	-6.21384e-06 	-5.48817e-07 30.0003 	-6.21384e-06 	-5.48817e-07 30.0001 	-1.84557e-07 	-1.02953e-06 30.0003 	-6.23395e-06 	-5.82033e-07 30.0003 	-6.23395e-06 	-5.82033e-07 30.0003 	-6.23394e-06 	-5.82033e-07 30.0003 	-6.23394e-06 	-5.82033e-07 30.0001 	-3.02013e-06 	-8.57462e-07 30.0003 	-6.25323e-06 	-6.13872e-07 30.0003 	-6.25323e-06 	-6.13872e-07 30.0003 	-6.25323e-06 	-6.13872e-07 30.0003 	-6.25323e-06 	-6.13872e-07 30.0001 	-3.05523e-06 	-8.9547e-07 30.0003 	-6.27173e-06 	-6.44398e-07 30.0003 	-6.27173e-06 	-6.44398e-07 30.0003 	-6.27173e-06 	-6.44397e-07 30.0003 	-6.27173e-06 	-6.44397e-07 30.0001 	-1.85999e-07 	-1.14084e-06 30.0003 	-6.28946e-06 	-6.73595e-07 30.0003 	-6.28946e-06 	-6.73595e-07 30.0003 	-6.28946e-06 	-6.73595e-07 30.0003 	-6.28946e-06 	-6.73595e-07 30.0001 	-1.86455e-07 	-1.1746e-06 30.0003 	-6.3065e-06 	-7.01412e-07 30.0003 	-6.30649e-06 	-7.01412e-07 30.0003 	-6.30649e-06 	-7.01412e-07 30.0003 	-6.30649e-06 	-7.01411e-07 30.0001 	-1.86908e-07 	-1.20668e-06 30.0003 	-6.32259e-06 	-7.27839e-07 30.0003 	-6.32259e-06 	-7.27839e-07 30.0003 	-6.32259e-06 	-7.27839e-07 30.0003 	-6.32258e-06 	-7.27838e-07 30.0001 	-3.1867e-06 	-1.03099e-06 30.0003 	-6.33786e-06 	-7.52951e-07 30.0003 	-6.33786e-06 	-7.52951e-07 30.0003 	-6.33786e-06 	-7.52951e-07 30.0003 	-6.33785e-06 	-7.52951e-07 30.0001 	-1.87779e-07 	-1.26597e-06 30.0003 	-6.35238e-06 	-7.7692e-07 30.0003 	-6.35238e-06 	-7.76919e-07 30.0003 	-6.35238e-06 	-7.76919e-07 30.0003 	-6.35238e-06 	-7.76919e-07 30.0001 	-1.88195e-07 	-1.29332e-06 30.0003 	-6.3662e-06 	-7.9979e-07 30.0003 	-6.3662e-06 	-7.99789e-07 30.0003 	-6.3662e-06 	-7.99789e-07 30.0003 	-6.3662e-06 	-7.99789e-07 30.0001 	-3.27611e-06 	-1.11604e-06 30.0003 	-6.3793e-06 	-8.21515e-07 30.0003 	-6.37929e-06 	-8.21515e-07 30.0003 	-6.37929e-06 	-8.21515e-07 30.0003 	-6.37929e-06 	-8.21514e-07 30.0001 	-3.30423e-06 	-1.14152e-06 30.0003 	-6.3916e-06 	-8.41953e-07 30.0003 	-6.3916e-06 	-8.41953e-07 30.0003 	-6.3916e-06 	-8.41952e-07 30.0003 	-6.3916e-06 	-8.41952e-07 30.0001 	-1.89404e-07 	-1.36686e-06 30.0003 	-6.40324e-06 	-8.61344e-07 30.0003 	-6.40324e-06 	-8.61344e-07 30.0003 	-6.40324e-06 	-8.61344e-07 30.0003 	-6.40323e-06 	-8.61344e-07 30.0001 	-1.89792e-07 	-1.38874e-06 30.0003 	-6.4142e-06 	-8.79782e-07 30.0003 	-6.41419e-06 	-8.79782e-07 30.0003 	-6.41419e-06 	-8.79782e-07 30.0003 	-6.41419e-06 	-8.79781e-07 30.0001 	-1.90174e-07 	-1.40939e-06 30.0003 	-6.42445e-06 	-8.97263e-07 30.0003 	-6.42445e-06 	-8.97263e-07 30.0003 	-6.42444e-06 	-8.97263e-07 30.0003 	-6.42444e-06 	-8.97262e-07 30.0001 	-3.40855e-06 	-1.23051e-06 30.0003 	-6.43403e-06 	-9.13849e-07 30.0003 	-6.43403e-06 	-9.13848e-07 30.0003 	-6.43402e-06 	-9.13848e-07 30.0003 	-6.43402e-06 	-9.13848e-07 30.0001 	-3.43268e-06 	-1.24984e-06 30.0003 	-6.44292e-06 	-9.29536e-07 30.0003 	-6.44292e-06 	-9.29536e-07 30.0003 	-6.44292e-06 	-9.29535e-07 30.0003 	-6.44291e-06 	-9.29535e-07 30.0001 	-1.91264e-07 	-1.46455e-06 30.0003 	-6.4512e-06 	-9.4439e-07 30.0003 	-6.4512e-06 	-9.44389e-07 30.0003 	-6.4512e-06 	-9.44389e-07 30.0003 	-6.45119e-06 	-9.44389e-07 30.0001 	-3.47876e-06 	-1.28533e-06 30.0003 	-6.45888e-06 	-9.58392e-07 30.0003 	-6.45888e-06 	-9.58392e-07 30.0003 	-6.45888e-06 	-9.58391e-07 30.0003 	-6.45888e-06 	-9.58391e-07 30.0001 	-3.50081e-06 	-1.3016e-06 30.0003 	-6.46597e-06 	-9.71686e-07 30.0003 	-6.46597e-06 	-9.71686e-07 30.0003 	-6.46597e-06 	-9.71685e-07 30.0003 	-6.46596e-06 	-9.71685e-07 3