# vtk DataFile Version 2.0
track0
ASCII
DATASET POLYDATA
POINTS 15780 float
-1.001 -0.05 0.0011
-1.0008 -0.05 0.0011
-1.0006 -0.05 0.0011
-1.0004 -0.05 0.0011
-1.0002 -0.05 0.0011
-1 -0.05 0.0011
-0.9875 -0.05 0.0011
-0.975 -0.05 0.0011
-0.9625 -0.05 0.0011
-0.95 -0.05 0.0011
-0.9375 -0.05 0.00109999
-0.925 -0.05 0.00109999
-0.9125 -0.05 0.00109999
-0.9 -0.05 0.00109999
-0.8875 -0.05 0.00109999
-0.875 -0.05 0.00109999
-0.8625 -0.05 0.00109999
-0.85 -0.05 0.00109999
-0.8375 -0.05 0.00109998
-0.825 -0.0500001 0.00109998
-0.8125 -0.0500001 0.00109998
-0.8 -0.0500001 0.00109998
-0.7875 -0.0500001 0.00109998
-0.775 -0.0500001 0.00109998
-0.7625 -0.0500001 0.00109998
-0.75 -0.0500001 0.00109998
-0.7375 -0.0500001 0.00109997
-0.725 -0.0500001 0.00109997
-0.7125 -0.0500001 0.00109997
-0.7 -0.0500001 0.00109997
-0.6875 -0.0500001 0.00109997
-0.675 -0.0500001 0.00109997
-0.6625 -0.0500001 0.00109997
-0.65 -0.0500001 0.00109996
-0.6375 -0.0500001 0.00109996
-0.625 -0.0500001 0.00109996
-0.6125 -0.0500001 0.00109996
-0.6 -0.0500001 0.00109996
-0.5875 -0.0500001 0.00109996
-0.575 -0.0500001 0.00109996
-0.5625 -0.0500001 0.00109996
-0.55 -0.0500001 0.00109995
-0.5375 -0.0500001 0.00109995
-0.525 -0.0500001 0.00109995
-0.5125 -0.0500001 0.00109995
-0.5 -0.0500001 0.00109995
-0.4875 -0.0500001 0.00109995
-0.475 -0.0500001 0.00109995
-0.4625 -0.0500001 0.00109994
-0.45 -0.0500002 0.00109994
-0.4375 -0.0500002 0.00109994
-0.425 -0.0500002 0.00109994
-0.4125 -0.0500002 0.00109994
-0.4 -0.0500002 0.00109994
-0.3875 -0.0500002 0.00109994
-0.375 -0.0500002 0.00109994
-0.3625 -0.0500002 0.00109993
-0.35 -0.0500002 0.00109993
-0.3375 -0.0500002 0.00109993
-0.325 -0.0500002 0.00109993
-0.3125 -0.0500002 0.00109993
-0.3 -0.0500002 0.00109993
-0.2875 -0.0500002 0.00109993
-0.275 -0.0500002 0.00109993
-0.2625 -0.0500002 0.00109992
-0.25 -0.0500002 0.00109992
-0.2375 -0.0500002 0.00109992
-0.225 -0.0500002 0.00109992
-0.2125 -0.0500002 0.00109992
-0.2 -0.0500002 0.00109992
-0.1875 -0.0500002 0.00109992
-0.175 -0.0500002 0.00109992
-0.1625 -0.0500002 0.00109991
-0.15 -0.0500002 0.00109991
-0.1375 -0.0500002 0.00109991
-0.125 -0.0500002 0.00109991
-0.1125 -0.0500002 0.00109991
-0.1 -0.0500002 0.00109991
-0.0875 -0.0500002 0.00109991
-0.075 -0.0500002 0.00109991
-0.0625 -0.0500002 0.00109991
-0.05 -0.0500003 0.00109991
-0.0375 -0.0500003 0.0010999
-0.025 -0.0500003 0.0010999
-0.0125 -0.0500003 0.0010999
2.10607e-13 -0.0500003 0.0010999
0.0125 -0.0500003 0.0010999
0.025 -0.0500003 0.0010999
0.0375 -0.0500003 0.0010999
0.05 -0.0500003 0.0010999
0.0625 -0.0500003 0.0010999
0.075 -0.0500003 0.0010999
0.0875 -0.0500003 0.0010999
0.1 -0.0500003 0.00109989
0.1125 -0.0500003 0.00109989
0.125 -0.0500003 0.00109989
0.1375 -0.0500003 0.00109989
0.15 -0.0500003 0.00109989
0.1625 -0.0500003 0.00109989
0.175 -0.0500003 0.00109989
0.1875 -0.0500003 0.00109989
0.2 -0.0500003 0.00109989
0.2125 -0.0500003 0.00109989
0.225 -0.0500003 0.00109989
0.2375 -0.0500003 0.00109989
0.25 -0.0500003 0.00109989
0.2625 -0.0500003 0.00109988
0.275 -0.0500003 0.00109988
0.2875 -0.0500003 0.00109988
0.3 -0.0500003 0.00109988
0.3125 -0.0500003 0.00109988
0.325 -0.0500003 0.00109988
0.3375 -0.0500003 0.00109988
0.35 -0.0500003 0.00109988
0.3625 -0.0500003 0.00109988
0.375 -0.0500003 0.00109988
0.3875 -0.0500003 0.00109988
0.4 -0.0500004 0.00109988
0.4125 -0.0500004 0.00109988
0.425 -0.0500004 0.00109988
0.4375 -0.0500004 0.00109988
0.45 -0.0500004 0.00109988
0.4625 -0.0500004 0.00109988
0.475 -0.0500004 0.00109988
0.4875 -0.0500004 0.00109988
0.5 -0.0500004 0.00109988
0.5125 -0.0500004 0.00109988
0.525 -0.0500004 0.00109988
0.5375 -0.0500004 0.00109988
0.55 -0.0500004 0.00109988
0.5625 -0.0500004 0.00109988
0.575 -0.0500004 0.00109987
0.5875 -0.0500004 0.00109987
0.6 -0.0500004 0.00109987
0.6125 -0.0500004 0.00109987
0.625 -0.0500004 0.00109987
0.6375 -0.0500004 0.00109987
0.65 -0.0500004 0.00109987
0.6625 -0.0500004 0.00109987
0.675 -0.0500004 0.00109987
0.6875 -0.0500004 0.00109987
0.7 -0.0500004 0.00109987
0.7125 -0.0500004 0.00109987
0.725 -0.0500004 0.00109987
0.7375 -0.0500004 0.00109987
0.75 -0.0500004 0.00109987
0.7625 -0.0500004 0.00109987
0.775 -0.0500004 0.00109987
0.7875 -0.0500004 0.00109987
0.8 -0.0500004 0.00109987
0.8125 -0.0500004 0.00109987
0.825 -0.0500004 0.00109987
0.8375 -0.0500004 0.00109987
0.85 -0.0500004 0.00109987
0.8625 -0.0500004 0.00109987
0.875 -0.0500004 0.00109987
0.8875 -0.0500004 0.00109987
0.9 -0.0500004 0.00109987
0.9125 -0.0500005 0.00109988
0.925 -0.0500005 0.00109988
0.9375 -0.0500005 0.00109988
0.95 -0.0500005 0.00109988
0.9625 -0.0500005 0.00109988
0.975 -0.0500005 0.00109988
0.9875 -0.0500005 0.00109988
1 -0.0500005 0.00109988
1.0125 -0.0500005 0.00109988
1.025 -0.0500005 0.00109988
1.0375 -0.0500005 0.00109988
1.05 -0.0500005 0.00109988
1.0625 -0.0500005 0.00109988
1.075 -0.0500005 0.00109988
1.0875 -0.0500005 0.00109988
1.1 -0.0500005 0.00109988
1.1125 -0.0500005 0.00109988
1.125 -0.0500005 0.00109988
1.1375 -0.0500005 0.00109988
1.15 -0.0500005 0.00109988
1.1625 -0.0500005 0.00109988
1.175 -0.0500005 0.00109988
1.1875 -0.0500005 0.00109988
1.2 -0.0500005 0.00109988
1.2125 -0.0500005 0.00109988
1.225 -0.0500005 0.00109988
1.2375 -0.0500005 0.00109989
1.25 -0.0500005 0.00109989
1.2625 -0.0500005 0.00109989
1.275 -0.0500005 0.00109989
1.2875 -0.0500005 0.00109989
1.3 -0.0500005 0.00109989
1.3125 -0.0500005 0.00109989
1.325 -0.0500005 0.00109989
1.3375 -0.0500005 0.00109989
1.35 -0.0500005 0.00109989
1.3625 -0.0500005 0.00109989
1.375 -0.0500005 0.00109989
1.3875 -0.0500005 0.00109989
1.4 -0.0500005 0.00109989
1.4125 -0.0500005 0.00109989
1.425 -0.0500005 0.00109989
1.4375 -0.0500005 0.0010999
1.45 -0.0500005 0.0010999
1.4625 -0.0500005 0.0010999
1.475 -0.0500005 0.0010999
1.4875 -0.0500005 0.0010999
1.5 -0.0500006 0.0010999
1.5125 -0.0500006 0.0010999
1.525 -0.0500006 0.0010999
1.5375 -0.0500006 0.0010999
1.55 -0.0500006 0.0010999
1.5625 -0.0500006 0.0010999
1.575 -0.0500006 0.0010999
1.5875 -0.0500006 0.0010999
1.6 -0.0500006 0.0010999
1.6125 -0.0500006 0.00109991
1.625 -0.0500006 0.00109991
1.6375 -0.0500006 0.00109991
1.65 -0.0500006 0.00109991
1.6625 -0.0500006 0.00109991
1.675 -0.0500006 0.00109991
1.6875 -0.0500006 0.00109991
1.7 -0.0500006 0.00109991
1.7125 -0.0500006 0.00109991
1.725 -0.0500006 0.00109991
1.7375 -0.0500006 0.00109991
1.75 -0.0500006 0.00109991
1.7625 -0.0500006 0.00109992
1.775 -0.0500006 0.00109992
1.7875 -0.0500006 0.00109992
1.8 -0.0500006 0.00109992
1.8125 -0.0500006 0.00109992
1.825 -0.0500006 0.00109992
1.8375 -0.0500006 0.00109992
1.85 -0.0500006 0.00109992
1.8625 -0.0500006 0.00109992
1.875 -0.0500006 0.00109992
1.8875 -0.0500006 0.00109992
1.9 -0.0500006 0.00109992
1.9125 -0.0500006 0.00109993
1.925 -0.0500006 0.00109993
1.9375 -0.0500006 0.00109993
1.95 -0.0500006 0.00109993
1.9625 -0.0500006 0.00109993
1.975 -0.0500006 0.00109993
1.9875 -0.0500006 0.00109993
2 -0.0500006 0.00109993
2.0125 -0.0500006 0.00109993
2.025 -0.0500006 0.00109993
2.0375 -0.0500006 0.00109993
2.05 -0.0500006 0.00109993
2.0625 -0.0500006 0.00109994
2.075 -0.0500006 0.00109994
2.0875 -0.0500006 0.00109994
2.1 -0.0500006 0.00109994
2.1125 -0.0500006 0.00109994
2.125 -0.0500006 0.00109994
2.1375 -0.0500006 0.00109994
2.15 -0.0500006 0.00109994
2.1625 -0.0500006 0.00109994
2.175 -0.0500007 0.00109994
2.1875 -0.0500007 0.00109994
2.2 -0.0500007 0.00109994
2.2125 -0.0500007 0.00109994
2.225 -0.0500007 0.00109995
2.2375 -0.0500007 0.00109995
2.25 -0.0500007 0.00109995
2.2625 -0.0500007 0.00109995
2.275 -0.0500007 0.00109995
2.2875 -0.0500007 0.00109995
2.3 -0.0500007 0.00109995
2.3125 -0.0500007 0.00109995
2.325 -0.0500007 0.00109995
2.3375 -0.0500007 0.00109995
2.35 -0.0500007 0.00109995
2.3625 -0.0500007 0.00109995
2.375 -0.0500007 0.00109995
2.3875 -0.0500007 0.00109996
2.4 -0.0500007 0.00109996
2.4125 -0.0500007 0.00109996
2.425 -0.0500007 0.00109996
2.4375 -0.0500007 0.00109996
2.45 -0.0500007 0.00109996
2.4625 -0.0500007 0.00109996
2.475 -0.0500007 0.00109996
2.4875 -0.0500007 0.00109996
2.5 -0.0500007 0.00109996
2.5125 -0.0500007 0.00109996
2.525 -0.0500007 0.00109996
2.5375 -0.0500007 0.00109996
2.55 -0.0500007 0.00109996
2.5625 -0.0500007 0.00109997
2.575 -0.0500007 0.00109997
2.5875 -0.0500007 0.00109997
2.6 -0.0500007 0.00109997
2.6125 -0.0500007 0.00109997
2.625 -0.0500007 0.00109997
2.6375 -0.0500007 0.00109997
2.65 -0.0500007 0.00109997
2.6625 -0.0500007 0.00109997
2.675 -0.0500007 0.00109997
2.6875 -0.0500007 0.00109997
2.7 -0.0500007 0.00109997
2.7125 -0.0500007 0.00109997
2.725 -0.0500007 0.00109997
2.7375 -0.0500007 0.00109997
2.75 -0.0500007 0.00109997
2.7625 -0.0500007 0.00109998
2.775 -0.0500007 0.00109998
2.7875 -0.0500007 0.00109998
2.8 -0.0500007 0.00109998
2.8125 -0.0500007 0.00109998
2.825 -0.0500007 0.00109998
2.8375 -0.0500007 0.00109998
2.85 -0.0500007 0.00109998
2.8625 -0.0500008 0.00109998
2.875 -0.0500008 0.00109998
2.8875 -0.0500008 0.00109998
2.9 -0.0500008 0.00109998
2.9125 -0.0500008 0.00109998
2.925 -0.0500008 0.00109998
2.9375 -0.0500008 0.00109998
2.95 -0.0500008 0.00109998
2.9625 -0.0500008 0.00109998
2.975 -0.0500008 0.00109998
2.9875 -0.0500008 0.00109998
3 -0.0500008 0.00109998
3.0125 -0.0500008 0.00109999
3.025 -0.0500008 0.00109999
3.0375 -0.0500008 0.00109999
3.05 -0.0500008 0.00109999
3.0625 -0.0500008 0.00109999
3.075 -0.0500008 0.00109999
3.0875 -0.0500008 0.00109999
3.1 -0.0500008 0.00109999
3.1125 -0.0500008 0.00109999
3.125 -0.0500008 0.00109999
3.1375 -0.0500008 0.00109999
3.15 -0.0500008 0.00109999
3.1625 -0.0500008 0.00109999
3.175 -0.0500008 0.00109999
3.1875 -0.0500008 0.00109999
3.2 -0.0500008 0.00109999
3.2125 -0.0500008 0.00109999
3.225 -0.0500008 0.00109999
3.2375 -0.0500008 0.00109999
3.25 -0.0500008 0.00109999
3.2625 -0.0500008 0.00109999
3.275 -0.0500008 0.00109999
3.2875 -0.0500008 0.00109999
3.3 -0.0500008 0.00109999
3.3125 -0.0500008 0.00109999
3.325 -0.0500008 0.00109999
3.3375 -0.0500008 0.00109999
3.35 -0.0500008 0.0011
3.3625 -0.0500008 0.0011
[...]
POINT_DATA 15780
 FIELD attributes 2
p 1 15780 float
-0.0310982 -0.0311142 -0.0311303 -0.0311463 -0.0311624 -0.0311784 -0.0321099 -0.0330336 -0.0339574 -0.0348811 -0.0359015 -0.0369654 -0.0380317 -0.0390981 -0.0401644 -0.0411841 -0.0421676 -0.0431324 -0.0440972 -0.045062 -0.0459751 -0.0468729 -0.0477755 -0.048678 -0.0495806 -0.0504773 -0.0513779 -0.0522794 -0.0531809 -0.0540824 -0.0549832 -0.0558907 -0.0567987 -0.0577066 -0.0586146 -0.0595221 -0.0604217 -0.0613192 -0.0622167 -0.0631141 -0.0640087 -0.0648878 -0.0657649 -0.0666421 -0.0675193 -0.0683943 -0.0692517 -0.070107 -0.0709623 -0.0718176 -0.072671 -0.0735056 -0.0743377 -0.0751697 -0.0760017 -0.0768315 -0.0776397 -0.0784449 -0.0792501 -0.0800552 -0.0808575 -0.0816357 -0.0824099 -0.0831842 -0.0839585 -0.0847291 -0.0854733 -0.0862132 -0.0869532 -0.0876931 -0.0884292 -0.0891365 -0.0898391 -0.0905416 -0.0912442 -0.0919421 -0.0926094 -0.0932716 -0.0939337 -0.0945959 -0.0952531 -0.0958775 -0.0964964 -0.0971152 -0.0977341 -0.0983473 -0.0989263 -0.0994995 -0.100073 -0.100646 -0.101213 -0.101746 -0.102272 -0.102798 -0.103324 -0.103845 -0.104329 -0.104807 -0.105284 -0.105762 -0.106233 -0.106668 -0.107094 -0.107521 -0.107948 -0.108367 -0.108747 -0.10912 -0.109493 -0.109866 -0.110231 -0.110556 -0.110873 -0.11119 -0.111507 -0.111816 -0.112084 -0.112345 -0.112605 -0.112865 -0.113117 -0.113328 -0.11353 -0.113733 -0.113936 -0.11413 -0.114283 -0.114427 -0.114571 -0.114715 -0.114851 -0.114944 -0.115029 -0.115115 -0.1152 -0.115277 -0.115314 -0.115342 -0.115371 -0.1154 -0.115421 -0.115403 -0.115378 -0.115352 -0.115327 -0.115294 -0.115224 -0.115146 -0.115068 -0.11499 -0.114905 -0.114783 -0.114653 -0.114524 -0.114394 -0.114257 -0.114083 -0.113902 -0.113721 -0.11354 -0.113351 -0.113128 -0.112897 -0.112667 -0.112436 -0.112199 -0.111929 -0.111652 -0.111375 -0.111098 -0.110815 -0.1105 -0.110179 -0.109859 -0.109538 -0.109211 -0.108854 -0.108492 -0.108129 -0.107767 -0.107398 -0.107001 -0.106599 -0.106198 -0.105796 -0.105388 -0.104955 -0.104516 -0.104078 -0.10364 -0.103196 -0.10273 -0.102259 -0.101789 -0.101318 -0.100843 -0.100349 -0.099851 -0.099353 -0.0988549 -0.0983527 -0.0978339 -0.0973114 -0.096789 -0.0962665 -0.0957403 -0.0951993 -0.0946549 -0.0941106 -0.0935662 -0.0930181 -0.0924572 -0.0918934 -0.0913296 -0.0907658 -0.0901989 -0.0896212 -0.089041 -0.0884609 -0.0878807 -0.0872976 -0.0867061 -0.0861127 -0.0855193 -0.0849259 -0.0843302 -0.0837284 -0.0831249 -0.0825213 -0.0819178 -0.0813123 -0.0807026 -0.0800918 -0.0794809 -0.0788701 -0.0782578 -0.0776434 -0.077028 -0.0764126 -0.0757972 -0.0751805 -0.0745635 -0.0739461 -0.0733287 -0.0727113 -0.0720932 -0.0714764 -0.0708594 -0.0702424 -0.0696254 -0.0690079 -0.0683933 -0.067779 -0.0671646 -0.0665503 -0.0659359 -0.0653259 -0.0647162 -0.0641065 -0.0634968 -0.0628872 -0.0622832 -0.06168 -0.0610768 -0.0604736 -0.0598709 -0.059275 -0.05868 -0.0580849 -0.0574899 -0.0568955 -0.056309 -0.0557238 -0.0551385 -0.0545533 -0.053969 -0.0533936 -0.0528194 -0.0522453 -0.0516712 -0.0510982 -0.0505348 -0.049973 -0.0494112 -0.0488495 -0.0482891 -0.0477391 -0.0471908 -0.0466424 -0.046094 -0.0455472 -0.0450112 -0.0444772 -0.0439431 -0.0434091 -0.0428768 -0.042356 -0.041837 -0.0413181 -0.0407991 -0.040282 -0.0397767 -0.0392734 -0.0387702 -0.038267 -0.0377658 -0.0372767 -0.0367897 -0.0363028 -0.0358158 -0.0353309 -0.0348582 -0.0343879 -0.0339175 -0.0334472 -0.032979 -0.0325233 -0.0320698 -0.0316163 -0.0311629 -0.0307116 -0.0302728 -0.0298364 -0.0293999 -0.0289635 -0.0285294 -0.0281077 -0.0276884 -0.0272691 -0.0268498 -0.0264328 -0.0260281 -0.0256259 -0.0252237 -0.0248214 -0.0244216 -0.0240341 -0.0236489 -0.0232638 -0.0228787 -0.022496 -0.0221256 -0.0217577 -0.0213898 -0.021022 -0.0206565 -0.0203033 -0.0199526 -0.0196018 -0.0192511 -0.0189027 -0.018566 -0.018232 -0.017898 -0.0175639 -0.0172324 -0.016912 -0.0165941 -0.0162762 -0.0159583 -0.0156429 -0.0153383 -0.015036 -0.0147337 -0.0144314 -0.0141316 -0.0138422 -0.0135551 -0.0132681 -0.012981 -0.0126965 -0.0124222 -0.0121501 -0.011878 -0.0116059 -0.0113361 -0.0110764 -0.010819 -0.0105615 -0.0103041 -0.0100489 -0.00980358 -0.00956042 -0.00931726 -0.0090741 -0.00883315 -0.00860167 -0.00837224 -0.0081428 -0.00791337 -0.00768602 -0.00746766 -0.00725141 -0.00703517 -0.00681892 -0.00660475 -0.00639922 -0.00619572 -0.00599222 -0.00578872 -0.00558723 -0.005394 -0.00520289 -0.00501177 -0.00482066 -0.00463164 -0.0044506 -0.00427166 -0.00409273 -0.00391379 -0.00373691 -0.00356767 -0.00340049 -0.00323331 -0.00306613 -0.00290099 -0.00274294 -0.00258676 -0.00243058 -0.00227441 -0.00212026 -0.00197275 -0.00182677 -0.00168079 -0.00153481 -0.0013906 -0.00125264 -0.00111628 -0.00097992 -0.00084356 -0.000708975 -0.000580299 -0.000453233 -0.000326166 -0.0001991 -7.36786e-05 4.59906e-05 0.000164044 0.000282098 0.000400152 0.000516587 0.000627575 0.000736977 0.000846379 0.000955781 0.00106356 0.0011663 0.00126749 0.00136868 0.00146987 0.00156947 0.00166437 0.0017578 0.00185124 0.00194467 0.00203659 0.00212413 0.00221024 0.00229634 0.00238245 0.00246708 0.00254759 0.00262676 0.00270593 0.00278511 0.00286288 0.00293682 0.00300945 0.00308208 0.0031547 0.00322594 0.00329363 0.00336009 0.00342654 0.00349299 0.00355814 0.00362 0.00368064 0.00374127 0.00380191 0.00386127 0.00391759 0.00397277 0.00402795 0.00408313 0.0041371 0.0041883 0.00423836 0.00428842 0.00433847 0.00438733 0.00443364 0.00447887 0.00452411 0.00456934 0.00461344 0.00465521 0.00469592 0.00473662 0.00477733 0.00481693 0.00485438 0.00489085 0.00492731 0.00496378 0.0049992 0.0050327 0.00506521 0.00509772 0.00513023 0.00516169 0.00519143 0.00522024 0.00524906 0.00527787 0.00530572 0.00533199 0.00535736 0.00538272 0.00540809 0.0054325 0.0054555 0.00547766 0.00549982 0.00552198 0.00554323 0.00556327 0.00558245 0.00560164 0.00562083 0.00563911 0.00565634 0.00567277 0.00568921 0.00570564 0.00572124 0.00573591 0.0057498 0.00576369 0.00577759 0.00579065 0.00580291 0.00581445 0.00582599 0.00583753 0.00584831 0.00585841 0.00586778 0.00587716 0.00588654 0.00589514 0.00590321 0.00591061 0.005918 0.00592539 0.00593207 0.00593831 0.00594389 0.00594946 0.00595503 0.00595989 0.00596443 0.00596835 0.00597227 0.00597618 0.00597943 0.00598247 0.00598488 0.00598729 0.00598971 0.00599144 0.00599308 0.00599412 0.00599516 0.00599621 0.00599662 0.00599702 0.00599682 0.00599662 0.00599642 0.0059956 0.00599484 0.00599353 0.00599222 0.00599092 0.00598903 0.00598729 0.005985 0.00598271 0.00598042 0.00597754 0.0059749 0.00597173 0.00596856 0.00596539 0.00596167 0.00595824 0.0059543 0.00595036 0.00594641 0.00594192 0.0059378 0.00593319 0.00592858 0.00592397 0.00591884 0.00591416 0.00590898 0.00590381 0.00589863 0.00589294 0.00588776 0.00588211 0.00587646 0.00587082 0.00586468 0.00585911 0.00585308 0.00584705 0.00584102 0.00583451 0.00582861 0.00582228 0.00581595 0.00580962 0.00580284 0.00579672 0.00579017 0.00578362 0.00577708 0.00577007 0.0057638 0.00575711 0.00575042 0.00574373 0.00573661 0.00573027 0.00572351 0.00571675 0.00570999 0.00570281 0.00569646 0.00568971 0.00568295 0.0056762 0.00566903 0.00566275 0.00565607 0.00564939 0.0056427 0.00563561 0.00562946 0.00562292 0.00561637 0.00560983 0.00560288 0.00559692 0.00559058 0.00558423 0.00557789 0.00557115 0.00556545 0.00555936 0.00555327 0.00554718 0.00554071 0.00553531 0.00552954 0.00552376 0.00551799 0.00551184 0.00550681 0.00550139 0.00549598 0.00549057 0.00548477 0.00548014 0.00547512 0.00547011 0.00546509 0.00545972 0.00545552 0.00545093 0.00544634 0.00544175 0.00543678 0.005433 0.00542883 0.00542466 0.00542049 0.00541595 0.00541256 0.00540874 0.00540493 0.00540111 0.00539691 0.0053937 0.00539006 0.00538641 0.00538276 0.0053787 0.00537529 0.00537137 0.00536745 0.00536353 0.00535912 0.00535421 0.00534848 0.00534275 0.00533703 0.00533051 0.00532173 0.00531252 0.0053033 0.00529409 0.00528439 0.00525826 0.0052266 0.00519495 0.00516329 0.00512675 0.00511526 0.00511791 0.00512056 0.0051232 0.00514882 0.00523241 0.00530844 0.0053878 0.00545075 0.00549636 0.00548933 0.00548549 0.00548165 0.00547783 0.0054763 0.00550316 0.00553083 0.00555851 0.00557817 0.00559912 0.00561304 0.00563188 0.00565075 0.00566962 0.00568394 0.00574682 0.00581182 0.00587683 0.00594183 0.00599833 0.00608975 0.00616585 0.00624195 0.00631805 0.00632318 0.00630854 0.00628916 0.00626977 0.00625039 0.0062405 0.00603965 0.00581808 0.00559652 0.00537495 0.00504758 0.00456759 0.00407371 0.00357983 0.00308595 0.00262186 0.0023521 0.0020748 0.0017975 0.0015202 0.00127286 0.00117427 0.00106925 0.00096423 0.000859209 0.000773568 0.000667658 0.000556191 0.000444724 0.000333256 0.000255273
-0.0319476 -0.0319667 -0.0319858 -0.0320049 -0.032024 -0.0320431 -0.032744 -0.0336216 -0.0344042 -0.0351667 -0.036225 -0.0372617 -0.038252 -0.0392545 -0.0403139 -0.0412979 -0.0422591 -0.0432251 -0.0441657 -0.0451009 -0.0460068 -0.0469049 -0.047811 -0.0487169 -0.0496221 -0.0505271 -0.0514188 -0.0523225 -0.0532312 -0.0541409 -0.0550613 -0.0559664 -0.0568787 -0.0577904 -0.0586999 -0.059615 -0.0605163 -0.0614147 -0.0623143 -0.0632141 -0.0641103 -0.0649913 -0.0658713 -0.0667509 -0.0676285 -0.0685044 -0.0693626 -0.0702182 -0.0710765 -0.0719352 -0.0727917 -0.0736258 -0.0744612 -0.075296 -0.0761284 -0.076962 -0.0777693 -0.0785747 -0.0793824 -0.0801906 -0.0809974 -0.081773 -0.0825502 -0.0833269 -0.0841013 -0.0848772 -0.085618 -0.0863581 -0.0871003 -0.0878431 -0.0885854 -0.0892878 -0.089993 -0.0906977 -0.0914003 -0.0921058 -0.0927671 -0.0934292 -0.0940934 -0.094758 -0.0954238 -0.0960407 -0.0966618 -0.0972825 -0.0979012 -0.098524 -0.099093 -0.099666 -0.100241 -0.100816 -0.101395 -0.101914 -0.102442 -0.102969 -0.103495 -0.10403 -0.104502 -0.10498 -0.105458 -0.105936 -0.106421 -0.106844 -0.107271 -0.107698 -0.108124 -0.108555 -0.108925 -0.109298 -0.109671 -0.110043 -0.110418 -0.110733 -0.11105 -0.111366 -0.111683 -0.112001 -0.112261 -0.112521 -0.11278 -0.11304 -0.1133 -0.113502 -0.113704 -0.113906 -0.114109 -0.114311 -0.114455 -0.114599 -0.114743 -0.114886 -0.115029 -0.115112 -0.115197 -0.115283 -0.115368 -0.115455 -0.11548 -0.115508 -0.115537 -0.115566 -0.115599 -0.115567 -0.115541 -0.115515 -0.115489 -0.11547 -0.115385 -0.115307 -0.115228 -0.115148 -0.115075 -0.114939 -0.114806 -0.114673 -0.114543 -0.114416 -0.114229 -0.114048 -0.113864 -0.113679 -0.113499 -0.113263 -0.113029 -0.112796 -0.112565 -0.112335 -0.112054 -0.111776 -0.111496 -0.111216 -0.110939 -0.110615 -0.11029 -0.109966 -0.109645 -0.109324 -0.108959 -0.108597 -0.108232 -0.107866 -0.107503 -0.107099 -0.106695 -0.106291 -0.10589 -0.105486 -0.105046 -0.104607 -0.104167 -0.103727 -0.103289 -0.102812 -0.102339 -0.101867 -0.101395 -0.100927 -0.100422 -0.0999233 -0.0994221 -0.0989205 -0.0984254 -0.0978963 -0.0973701 -0.0968444 -0.0963215 -0.0958012 -0.0952516 -0.0947069 -0.0941595 -0.0936116 -0.0930685 -0.0925 -0.0919329 -0.0913664 -0.0908023 -0.0902391 -0.0896545 -0.089074 -0.0884912 -0.0879078 -0.0873284 -0.0867306 -0.0861342 -0.0855382 -0.0849445 -0.0843518 -0.0837441 -0.0831403 -0.0825343 -0.0819279 -0.0813252 -0.0807103 -0.0800968 -0.0794837 -0.0788725 -0.0782624 -0.0776433 -0.0770276 -0.07641 -0.075792 -0.0751774 -0.0745563 -0.0739365 -0.073317 -0.0726994 -0.0720826 -0.0714623 -0.070845 -0.0702262 -0.069607 -0.0689908 -0.0683733 -0.067757 -0.067141 -0.0665265 -0.0659129 -0.0653003 -0.0646904 -0.0640792 -0.0634677 -0.0628588 -0.0622528 -0.0616479 -0.0610433 -0.0604399 -0.0598375 -0.0592398 -0.0586447 -0.0580484 -0.0574519 -0.0568577 -0.05627 -0.0556834 -0.055097 -0.0545116 -0.0539272 -0.0533508 -0.0527766 -0.0522015 -0.0516262 -0.051053 -0.0504891 -0.0499263 -0.0493637 -0.0488018 -0.0482409 -0.0476906 -0.0471422 -0.0465931 -0.0460439 -0.0454964 -0.0449606 -0.0444258 -0.0438912 -0.0433571 -0.042824 -0.0423034 -0.0417845 -0.041265 -0.0407455 -0.0402275 -0.0397228 -0.0392191 -0.0387156 -0.0382123 -0.03771 -0.0372217 -0.0367348 -0.0362475 -0.0357602 -0.0352741 -0.0348026 -0.034332 -0.0338615 -0.0333911 -0.0329216 -0.0324671 -0.0320137 -0.0315601 -0.0311065 -0.030654 -0.0302166 -0.0297801 -0.0293437 -0.0289073 -0.0284718 -0.0280517 -0.0276324 -0.0272132 -0.0267939 -0.0263756 -0.0259726 -0.0255705 -0.0251684 -0.0247662 -0.024365 -0.023979 -0.0235939 -0.0232089 -0.022824 -0.02244 -0.022071 -0.0217033 -0.0213357 -0.0209678 -0.0206012 -0.0202492 -0.0198986 -0.0195481 -0.0191976 -0.0188482 -0.0185128 -0.0181789 -0.017845 -0.0175111 -0.0171784 -0.0168598 -0.016542 -0.0162243 -0.0159065 -0.0155898 -0.0152873 -0.0149854 -0.0146833 -0.0143812 -0.0140794 -0.0137929 -0.013506 -0.0132193 -0.0129326 -0.0126457 -0.0123744 -0.0121027 -0.011831 -0.011559 -0.0112867 -0.0110297 -0.0107723 -0.0105152 -0.0102582 -0.0100008 -0.00975797 -0.00951527 -0.0092725 -0.00902939 -0.00878647 -0.00855749 -0.00832814 -0.00809919 -0.00787033 -0.00764099 -0.0074253 -0.00720978 -0.00699415 -0.00677802 -0.00656216 -0.00635907 -0.00615567 -0.00595281 -0.00575006 -0.00554702 -0.00535603 -0.00516566 -0.00497518 -0.00478415 -0.00459366 -0.00441451 -0.00423563 -0.00405715 -0.00387877 -0.00370074 -0.00353274 -0.00336579 -0.00319881 -0.00303166 -0.00286533 -0.00270871 -0.0025526 -0.00239659 -0.00224061 -0.00208528 -0.00193958 -0.001794 -0.00164836 -0.0015025 -0.00135693 -0.00122151 -0.00108528 -0.000949436 -0.000813676 -0.000677154 -0.000551187 -0.000424785 -0.000298282 -0.000171327 -4.40857e-05 7.31871e-05 0.000191155 0.000308684 0.000426115 0.000544283 0.000653102 0.000761956 0.000870897 0.000980231 0.00108958 0.0011903 0.00129142 0.0013922 0.00149289 0.00159396 0.00168697 0.00177993 0.00187297 0.00196634 0.00205964 0.0021453 0.00223134 0.00231706 0.00240271 0.00248868 0.00256742 0.00264613 0.00272492 0.00280402 0.00288306 0.00295523 0.00302779 0.00310003 0.00317219 0.00324467 0.00331074 0.00337675 0.00344283 0.00350922 0.00357554 0.00363578 0.00369636 0.00375667 0.00381691 0.00387742 0.00393222 0.00398705 0.00404193 0.00409706 0.0041522 0.00420181 0.00425182 0.00430158 0.00435129 0.00440131 0.0044461 0.00449098 0.00453591 0.00458109 0.00462634 0.00466655 0.00470721 0.00474762 0.00478797 0.0048287 0.00486469 0.00490083 0.00493701 0.00497343 0.00500997 0.00504197 0.00507443 0.00510667 0.00513886 0.00517144 0.00519977 0.00522827 0.00525683 0.0052856 0.00531453 0.00533938 0.0053647 0.00538982 0.0054149 0.00544038 0.00546205 0.00548393 0.00550586 0.00552798 0.0055503 0.00556896 0.00558811 0.00560707 0.00562599 0.00564533 0.00566126 0.00567744 0.00569366 0.00571005 0.00572668 0.00574004 0.00575389 0.00576757 0.00578122 0.0057953 0.00580632 0.00581763 0.00582898 0.00584048 0.00585225 0.00586108 0.00587043 0.00587962 0.00588877 0.00589838 0.00590525 0.00591243 0.00591964 0.005927 0.00593466 0.00593968 0.00594522 0.00595062 0.005956 0.00596185 0.00596522 0.00596895 0.00597271 0.0059766 0.00598082 0.00598266 0.00598504 0.0059873 0.00598954 0.00599226 0.00599276 0.00599363 0.00599452 0.00599554 0.00599692 0.00599614 0.00599592 0.00599558 0.00599522 0.00599537 0.00599348 0.00599203 0.00599059 0.00598926 0.00598835 0.00598548 0.00598317 0.00598075 0.00597831 0.00597639 0.00597267 0.00596935 0.00596606 0.00596287 0.00596009 0.00595557 0.00595161 0.00594755 0.00594347 0.00593991 0.00593474 0.00593001 0.0059253 0.00592067 0.00591647 0.00591072 0.00590553 0.00590025 0.00589497 0.0058902 0.00588399 0.00587824 0.0058725 0.00586684 0.00586163 0.00585502 0.00584897 0.00584285 0.00583672 0.00583113 0.00582423 0.0058178 0.00581139 0.00580505 0.00579918 0.00579204 0.00578548 0.00577886 0.00577222 0.00576613 0.00575887 0.0057521 0.00574534 0.00573863 0.00573243 0.00572508 0.00571831 0.00571149 0.00570466 0.00569839 0.00569106 0.00568424 0.00567743 0.00567066 0.00566442 0.00565714 0.00565045 0.00564371 0.00563697 0.0056308 0.00562367 0.00561707 0.00561048 0.00560393 0.00559791 0.00559097 0.00558461 0.00557823 0.00557184 0.00556602 0.00555935 0.00555323 0.00554711 0.00554101 0.00553548 0.0055291 0.00552332 0.00551752 0.00551172 0.00550651 0.00550051 0.00549508 0.00548965 0.00548424 0.00547941 0.00547379 0.00546878 0.00546377 0.00545876 0.00545436 0.00544919 0.00544464 0.00544008 0.00543549 0.00543156 0.00542679 0.00542263 0.00541854 0.00541448 0.00541102 0.00540664 0.00540305 0.00539941 0.00539562 0.00539264 0.00538847 0.00538488 0.00538164 0.00537849 0.00537592 0.00537159 0.00536877 0.00536577 0.00536199 0.00535971 0.00535437 0.00534912 0.00534612 0.00534365 0.00534121 0.00533217 0.00533043 0.0053275 0.00531956 0.00531851 0.00530419 0.00527961 0.00527509 0.00527531 0.00526456 0.00522166 0.00523323 0.00524359 0.00524886 0.00531696 0.00541041 0.00547396 0.00553752 0.00557549 0.00552917 0.00550995 0.0055029 0.00549585 0.00548835 0.00549234 0.00550987 0.00552802 0.00554618 0.00555787 0.00556912 0.00557017 0.00557122 0.00557228 0.0055732 0.0055739 0.00559872 0.00562766 0.00565669 0.00568572 0.00565909 0.00569723 0.00575987 0.00582288 0.00588588 0.00596587 0.00618013 0.00626914 0.00635159 0.00642768 0.00632075 0.00635661 0.00633722 0.00632077 0.0063113 0.00625592 0.00620937 0.00598781 0.00576625 0.0055321 0.00503851 0.00469888 0.004205 0.00371112 0.00321457 0.00259578 0.00241415 0.00213685 0.00185955 0.00158225 0.00124246 0.00122336 0.00111834 0.00101332 0.0009083 0.000751136 0.000715143 0.000603678 0.000492212 0.000380747 0.000206752