# vtk DataFile Version 2.0
track0
ASCII
DATASET POLYDATA
POINTS 15780 float
-1.001 -0.05 0.0011
-1.0008 -0.05 0.0011
-1.0006 -0.05 0.0011
-1.0004 -0.05 0.0011
-1.0002 -0.05 0.0011
-1 -0.05 0.0011
-0.9875 -0.05 0.0011
-0.975 -0.05 0.0011
-0.9625 -0.05 0.0011
-0.95 -0.05 0.0011
-0.9375 -0.05 0.00109999
-0.925 -0.05 0.00109999
-0.9125 -0.05 0.00109999
-0.9 -0.05 0.00109999
-0.8875 -0.05 0.00109999
-0.875 -0.05 0.00109999
-0.8625 -0.05 0.00109999
-0.85 -0.05 0.00109999
-0.8375 -0.05 0.00109998
-0.825 -0.0500001 0.00109998
-0.8125 -0.0500001 0.00109998
-0.8 -0.0500001 0.00109998
-0.7875 -0.0500001 0.00109998
-0.775 -0.0500001 0.00109998
-0.7625 -0.0500001 0.00109998
-0.75 -0.0500001 0.00109998
-0.7375 -0.0500001 0.00109997
-0.725 -0.0500001 0.00109997
-0.7125 -0.0500001 0.00109997
-0.7 -0.0500001 0.00109997
-0.6875 -0.0500001 0.00109997
-0.675 -0.0500001 0.00109997
-0.6625 -0.0500001 0.00109997
-0.65 -0.0500001 0.00109996
-0.6375 -0.0500001 0.00109996
-0.625 -0.0500001 0.00109996
-0.6125 -0.0500001 0.00109996
-0.6 -0.0500001 0.00109996
-0.5875 -0.0500001 0.00109996
-0.575 -0.0500001 0.00109996
-0.5625 -0.0500001 0.00109996
-0.55 -0.0500001 0.00109995
-0.5375 -0.0500001 0.00109995
-0.525 -0.0500001 0.00109995
-0.5125 -0.0500001 0.00109995
-0.5 -0.0500001 0.00109995
-0.4875 -0.0500001 0.00109995
-0.475 -0.0500001 0.00109995
-0.4625 -0.0500001 0.00109994
-0.45 -0.0500002 0.00109994
-0.4375 -0.0500002 0.00109994
-0.425 -0.0500002 0.00109994
-0.4125 -0.0500002 0.00109994
-0.4 -0.0500002 0.00109994
-0.3875 -0.0500002 0.00109994
-0.375 -0.0500002 0.00109994
-0.3625 -0.0500002 0.00109993
-0.35 -0.0500002 0.00109993
-0.3375 -0.0500002 0.00109993
-0.325 -0.0500002 0.00109993
-0.3125 -0.0500002 0.00109993
-0.3 -0.0500002 0.00109993
-0.2875 -0.0500002 0.00109993
-0.275 -0.0500002 0.00109993
-0.2625 -0.0500002 0.00109992
-0.25 -0.0500002 0.00109992
-0.2375 -0.0500002 0.00109992
-0.225 -0.0500002 0.00109992
-0.2125 -0.0500002 0.00109992
-0.2 -0.0500002 0.00109992
-0.1875 -0.0500002 0.00109992
-0.175 -0.0500002 0.00109992
-0.1625 -0.0500002 0.00109991
-0.15 -0.0500002 0.00109991
-0.1375 -0.0500002 0.00109991
-0.125 -0.0500002 0.00109991
-0.1125 -0.0500002 0.00109991
-0.1 -0.0500002 0.00109991
-0.0875 -0.0500002 0.00109991
-0.075 -0.0500002 0.00109991
-0.0625 -0.0500002 0.00109991
-0.05 -0.0500003 0.00109991
-0.0375 -0.0500003 0.0010999
-0.025 -0.0500003 0.0010999
-0.0125 -0.0500003 0.0010999
2.10607e-13 -0.0500003 0.0010999
0.0125 -0.0500003 0.0010999
0.025 -0.0500003 0.0010999
0.0375 -0.0500003 0.0010999
0.05 -0.0500003 0.0010999
0.0625 -0.0500003 0.0010999
0.075 -0.0500003 0.0010999
0.0875 -0.0500003 0.0010999
0.1 -0.0500003 0.00109989
0.1125 -0.0500003 0.00109989
0.125 -0.0500003 0.00109989
0.1375 -0.0500003 0.00109989
0.15 -0.0500003 0.00109989
0.1625 -0.0500003 0.00109989
0.175 -0.0500003 0.00109989
0.1875 -0.0500003 0.00109989
0.2 -0.0500003 0.00109989
0.2125 -0.0500003 0.00109989
0.225 -0.0500003 0.00109989
0.2375 -0.0500003 0.00109989
0.25 -0.0500003 0.00109989
0.2625 -0.0500003 0.00109988
0.275 -0.0500003 0.00109988
0.2875 -0.0500003 0.00109988
0.3 -0.0500003 0.00109988
0.3125 -0.0500003 0.00109988
0.325 -0.0500003 0.00109988
0.3375 -0.0500003 0.00109988
0.35 -0.0500003 0.00109988
0.3625 -0.0500003 0.00109988
0.375 -0.0500003 0.00109988
0.3875 -0.0500003 0.00109988
0.4 -0.0500004 0.00109988
0.4125 -0.0500004 0.00109988
0.425 -0.0500004 0.00109988
0.4375 -0.0500004 0.00109988
0.45 -0.0500004 0.00109988
0.4625 -0.0500004 0.00109988
0.475 -0.0500004 0.00109988
0.4875 -0.0500004 0.00109988
0.5 -0.0500004 0.00109988
0.5125 -0.0500004 0.00109988
0.525 -0.0500004 0.00109988
0.5375 -0.0500004 0.00109988
0.55 -0.0500004 0.00109988
0.5625 -0.0500004 0.00109988
0.575 -0.0500004 0.00109987
0.5875 -0.0500004 0.00109987
0.6 -0.0500004 0.00109987
0.6125 -0.0500004 0.00109987
0.625 -0.0500004 0.00109987
0.6375 -0.0500004 0.00109987
0.65 -0.0500004 0.00109987
0.6625 -0.0500004 0.00109987
0.675 -0.0500004 0.00109987
0.6875 -0.0500004 0.00109987
0.7 -0.0500004 0.00109987
0.7125 -0.0500004 0.00109987
0.725 -0.0500004 0.00109987
0.7375 -0.0500004 0.00109987
0.75 -0.0500004 0.00109987
0.7625 -0.0500004 0.00109987
0.775 -0.0500004 0.00109987
0.7875 -0.0500004 0.00109987
0.8 -0.0500004 0.00109987
0.8125 -0.0500004 0.00109987
0.825 -0.0500004 0.00109987
0.8375 -0.0500004 0.00109987
0.85 -0.0500004 0.00109987
0.8625 -0.0500004 0.00109987
0.875 -0.0500004 0.00109987
0.8875 -0.0500004 0.00109987
0.9 -0.0500004 0.00109987
0.9125 -0.0500005 0.00109988
0.925 -0.0500005 0.00109988
0.9375 -0.0500005 0.00109988
0.95 -0.0500005 0.00109988
0.9625 -0.0500005 0.00109988
0.975 -0.0500005 0.00109988
0.9875 -0.0500005 0.00109988
1 -0.0500005 0.00109988
1.0125 -0.0500005 0.00109988
1.025 -0.0500005 0.00109988
1.0375 -0.0500005 0.00109988
1.05 -0.0500005 0.00109988
1.0625 -0.0500005 0.00109988
1.075 -0.0500005 0.00109988
1.0875 -0.0500005 0.00109988
1.1 -0.0500005 0.00109988
1.1125 -0.0500005 0.00109988
1.125 -0.0500005 0.00109988
1.1375 -0.0500005 0.00109988
1.15 -0.0500005 0.00109988
1.1625 -0.0500005 0.00109988
1.175 -0.0500005 0.00109988
1.1875 -0.0500005 0.00109988
1.2 -0.0500005 0.00109988
1.2125 -0.0500005 0.00109988
1.225 -0.0500005 0.00109988
1.2375 -0.0500005 0.00109989
1.25 -0.0500005 0.00109989
1.2625 -0.0500005 0.00109989
1.275 -0.0500005 0.00109989
1.2875 -0.0500005 0.00109989
1.3 -0.0500005 0.00109989
1.3125 -0.0500005 0.00109989
1.325 -0.0500005 0.00109989
1.3375 -0.0500005 0.00109989
1.35 -0.0500005 0.00109989
1.3625 -0.0500005 0.00109989
1.375 -0.0500005 0.00109989
1.3875 -0.0500005 0.00109989
1.4 -0.0500005 0.00109989
1.4125 -0.0500005 0.00109989
1.425 -0.0500005 0.00109989
1.4375 -0.0500005 0.0010999
1.45 -0.0500005 0.0010999
1.4625 -0.0500005 0.0010999
1.475 -0.0500005 0.0010999
1.4875 -0.0500005 0.0010999
1.5 -0.0500006 0.0010999
1.5125 -0.0500006 0.0010999
1.525 -0.0500006 0.0010999
1.5375 -0.0500006 0.0010999
1.55 -0.0500006 0.0010999
1.5625 -0.0500006 0.0010999
1.575 -0.0500006 0.0010999
1.5875 -0.0500006 0.0010999
1.6 -0.0500006 0.0010999
1.6125 -0.0500006 0.00109991
1.625 -0.0500006 0.00109991
1.6375 -0.0500006 0.00109991
1.65 -0.0500006 0.00109991
1.6625 -0.0500006 0.00109991
1.675 -0.0500006 0.00109991
1.6875 -0.0500006 0.00109991
1.7 -0.0500006 0.00109991
1.7125 -0.0500006 0.00109991
1.725 -0.0500006 0.00109991
1.7375 -0.0500006 0.00109991
1.75 -0.0500006 0.00109991
1.7625 -0.0500006 0.00109992
1.775 -0.0500006 0.00109992
1.7875 -0.0500006 0.00109992
1.8 -0.0500006 0.00109992
1.8125 -0.0500006 0.00109992
1.825 -0.0500006 0.00109992
1.8375 -0.0500006 0.00109992
1.85 -0.0500006 0.00109992
1.8625 -0.0500006 0.00109992
1.875 -0.0500006 0.00109992
1.8875 -0.0500006 0.00109992
1.9 -0.0500006 0.00109992
1.9125 -0.0500006 0.00109993
1.925 -0.0500006 0.00109993
1.9375 -0.0500006 0.00109993
1.95 -0.0500006 0.00109993
1.9625 -0.0500006 0.00109993
1.975 -0.0500006 0.00109993
1.9875 -0.0500006 0.00109993
2 -0.0500006 0.00109993
2.0125 -0.0500006 0.00109993
2.025 -0.0500006 0.00109993
2.0375 -0.0500006 0.00109993
2.05 -0.0500006 0.00109993
2.0625 -0.0500006 0.00109994
2.075 -0.0500006 0.00109994
2.0875 -0.0500006 0.00109994
2.1 -0.0500006 0.00109994
2.1125 -0.0500006 0.00109994
2.125 -0.0500006 0.00109994
2.1375 -0.0500006 0.00109994
2.15 -0.0500006 0.00109994
2.1625 -0.0500006 0.00109994
2.175 -0.0500007 0.00109994
2.1875 -0.0500007 0.00109994
2.2 -0.0500007 0.00109994
2.2125 -0.0500007 0.00109994
2.225 -0.0500007 0.00109995
2.2375 -0.0500007 0.00109995
2.25 -0.0500007 0.00109995
2.2625 -0.0500007 0.00109995
2.275 -0.0500007 0.00109995
2.2875 -0.0500007 0.00109995
2.3 -0.0500007 0.00109995
2.3125 -0.0500007 0.00109995
2.325 -0.0500007 0.00109995
2.3375 -0.0500007 0.00109995
2.35 -0.0500007 0.00109995
2.3625 -0.0500007 0.00109995
2.375 -0.0500007 0.00109995
2.3875 -0.0500007 0.00109996
2.4 -0.0500007 0.00109996
2.4125 -0.0500007 0.00109996
2.425 -0.0500007 0.00109996
2.4375 -0.0500007 0.00109996
2.45 -0.0500007 0.00109996
2.4625 -0.0500007 0.00109996
2.475 -0.0500007 0.00109996
2.4875 -0.0500007 0.00109996
2.5 -0.0500007 0.00109996
2.5125 -0.0500007 0.00109996
2.525 -0.0500007 0.00109996
2.5375 -0.0500007 0.00109996
2.55 -0.0500007 0.00109996
2.5625 -0.0500007 0.00109997
2.575 -0.0500007 0.00109997
2.5875 -0.0500007 0.00109997
2.6 -0.0500007 0.00109997
2.6125 -0.0500007 0.00109997
2.625 -0.0500007 0.00109997
2.6375 -0.0500007 0.00109997
2.65 -0.0500007 0.00109997
2.6625 -0.0500007 0.00109997
2.675 -0.0500007 0.00109997
2.6875 -0.0500007 0.00109997
2.7 -0.0500007 0.00109997
2.7125 -0.0500007 0.00109997
2.725 -0.0500007 0.00109997
2.7375 -0.0500007 0.00109997
2.75 -0.0500007 0.00109997
2.7625 -0.0500007 0.00109998
2.775 -0.0500007 0.00109998
2.7875 -0.0500007 0.00109998
2.8 -0.0500007 0.00109998
2.8125 -0.0500007 0.00109998
2.825 -0.0500007 0.00109998
2.8375 -0.0500007 0.00109998
2.85 -0.0500007 0.00109998
2.8625 -0.0500008 0.00109998
2.875 -0.0500008 0.00109998
2.8875 -0.0500008 0.00109998
2.9 -0.0500008 0.00109998
2.9125 -0.0500008 0.00109998
2.925 -0.0500008 0.00109998
2.9375 -0.0500008 0.00109998
2.95 -0.0500008 0.00109998
2.9625 -0.0500008 0.00109998
2.975 -0.0500008 0.00109998
2.9875 -0.0500008 0.00109998
3 -0.0500008 0.00109998
3.0125 -0.0500008 0.00109999
3.025 -0.0500008 0.00109999
3.0375 -0.0500008 0.00109999
3.05 -0.0500008 0.00109999
3.0625 -0.0500008 0.00109999
3.075 -0.0500008 0.00109999
3.0875 -0.0500008 0.00109999
3.1 -0.0500008 0.00109999
3.1125 -0.0500008 0.00109999
3.125 -0.0500008 0.00109999
3.1375 -0.0500008 0.00109999
3.15 -0.0500008 0.00109999
3.1625 -0.0500008 0.00109999
3.175 -0.0500008 0.00109999
3.1875 -0.0500008 0.00109999
3.2 -0.0500008 0.00109999
3.2125 -0.0500008 0.00109999
3.225 -0.0500008 0.00109999
3.2375 -0.0500008 0.00109999
3.25 -0.0500008 0.00109999
3.2625 -0.0500008 0.00109999
3.275 -0.0500008 0.00109999
3.2875 -0.0500008 0.00109999
3.3 -0.0500008 0.00109999
3.3125 -0.0500008 0.00109999
3.325 -0.0500008 0.00109999
3.3375 -0.0500008 0.00109999
3.35 -0.0500008 0.0011
3.3625 -0.0500008 0.0011
[...]
POINT_DATA 15780
 FIELD attributes 2
p 1 15780 float
-0.031098 -0.0311141 -0.0311301 -0.0311462 -0.0311622 -0.0311783 -0.0321097 -0.0330335 -0.0339572 -0.034881 -0.0359014 -0.0369653 -0.0380316 -0.039098 -0.0401643 -0.041184 -0.0421675 -0.0431323 -0.0440971 -0.0450619 -0.045975 -0.0468729 -0.0477754 -0.048678 -0.0495805 -0.0504773 -0.0513779 -0.0522794 -0.0531809 -0.0540824 -0.0549832 -0.0558907 -0.0567987 -0.0577066 -0.0586146 -0.0595221 -0.0604217 -0.0613192 -0.0622167 -0.0631142 -0.0640087 -0.0648878 -0.065765 -0.0666421 -0.0675193 -0.0683943 -0.0692517 -0.070107 -0.0709623 -0.0718176 -0.072671 -0.0735057 -0.0743377 -0.0751697 -0.0760018 -0.0768315 -0.0776398 -0.0784449 -0.0792501 -0.0800553 -0.0808576 -0.0816357 -0.08241 -0.0831842 -0.0839585 -0.0847292 -0.0854733 -0.0862133 -0.0869532 -0.0876932 -0.0884293 -0.0891366 -0.0898391 -0.0905417 -0.0912443 -0.0919422 -0.0926095 -0.0932717 -0.0939338 -0.094596 -0.0952532 -0.0958776 -0.0964965 -0.0971153 -0.0977342 -0.0983475 -0.0989264 -0.0994996 -0.100073 -0.100646 -0.101213 -0.101746 -0.102272 -0.102798 -0.103324 -0.103845 -0.104329 -0.104807 -0.105284 -0.105762 -0.106234 -0.106668 -0.107095 -0.107521 -0.107948 -0.108367 -0.108748 -0.109121 -0.109493 -0.109866 -0.110231 -0.110556 -0.110873 -0.11119 -0.111507 -0.111816 -0.112085 -0.112345 -0.112605 -0.112865 -0.113117 -0.113328 -0.113531 -0.113733 -0.113936 -0.114131 -0.114283 -0.114427 -0.114571 -0.114715 -0.114851 -0.114944 -0.115029 -0.115115 -0.1152 -0.115278 -0.115314 -0.115343 -0.115372 -0.1154 -0.115421 -0.115403 -0.115378 -0.115353 -0.115327 -0.115294 -0.115224 -0.115146 -0.115068 -0.114991 -0.114906 -0.114783 -0.114654 -0.114524 -0.114395 -0.114258 -0.114084 -0.113903 -0.113721 -0.11354 -0.113352 -0.113128 -0.112898 -0.112667 -0.112437 -0.112199 -0.111929 -0.111652 -0.111375 -0.111098 -0.110815 -0.1105 -0.11018 -0.109859 -0.109538 -0.109211 -0.108855 -0.108492 -0.10813 -0.107767 -0.107398 -0.107002 -0.1066 -0.106198 -0.105796 -0.105388 -0.104955 -0.104517 -0.104078 -0.10364 -0.103196 -0.10273 -0.102259 -0.101789 -0.101319 -0.100844 -0.100349 -0.0998514 -0.0993533 -0.0988552 -0.0983531 -0.0978342 -0.0973118 -0.0967893 -0.0962669 -0.0957406 -0.0951997 -0.0946553 -0.0941109 -0.0935666 -0.0930185 -0.0924575 -0.0918938 -0.09133 -0.0907662 -0.0901993 -0.0896216 -0.0890414 -0.0884612 -0.0878811 -0.0872979 -0.0867065 -0.0861131 -0.0855197 -0.0849263 -0.0843306 -0.0837288 -0.0831252 -0.0825217 -0.0819182 -0.0813126 -0.0807029 -0.0800921 -0.0794813 -0.0788705 -0.0782582 -0.0776438 -0.0770284 -0.076413 -0.0757976 -0.0751809 -0.0745639 -0.0739465 -0.0733291 -0.0727117 -0.0720936 -0.0714768 -0.0708598 -0.0702428 -0.0696258 -0.0690083 -0.0683937 -0.0677794 -0.0671651 -0.0665507 -0.0659363 -0.0653263 -0.0647166 -0.0641069 -0.0634972 -0.0628876 -0.0622836 -0.0616804 -0.0610772 -0.060474 -0.0598713 -0.0592754 -0.0586804 -0.0580854 -0.0574904 -0.056896 -0.0563095 -0.0557242 -0.055139 -0.0545537 -0.0539694 -0.053394 -0.0528199 -0.0522458 -0.0516716 -0.0510986 -0.0505352 -0.0499735 -0.0494117 -0.0488499 -0.0482896 -0.0477396 -0.0471912 -0.0466428 -0.0460945 -0.0455476 -0.0450117 -0.0444776 -0.0439436 -0.0434096 -0.0428773 -0.0423564 -0.0418375 -0.0413185 -0.0407996 -0.0402824 -0.0397771 -0.0392739 -0.0387707 -0.0382675 -0.0377663 -0.0372772 -0.0367902 -0.0363032 -0.0358163 -0.0353313 -0.0348587 -0.0343883 -0.033918 -0.0334476 -0.0329795 -0.0325237 -0.0320702 -0.0316168 -0.0311633 -0.030712 -0.0302732 -0.0298368 -0.0294004 -0.028964 -0.0285299 -0.0281082 -0.0276889 -0.0272695 -0.0268502 -0.0264332 -0.0260286 -0.0256263 -0.0252241 -0.0248219 -0.024422 -0.0240345 -0.0236494 -0.0232643 -0.0228792 -0.0224965 -0.0221261 -0.0217582 -0.0213903 -0.0210224 -0.020657 -0.0203038 -0.019953 -0.0196023 -0.0192515 -0.0189031 -0.0185665 -0.0182325 -0.0178984 -0.0175644 -0.0172329 -0.0169125 -0.0165946 -0.0162767 -0.0159588 -0.0156434 -0.0153388 -0.0150365 -0.0147342 -0.0144319 -0.014132 -0.0138427 -0.0135556 -0.0132686 -0.0129815 -0.012697 -0.0124227 -0.0121506 -0.0118785 -0.0116064 -0.0113366 -0.0110769 -0.0108195 -0.010562 -0.0103046 -0.0100494 -0.00980407 -0.00956091 -0.00931775 -0.0090746 -0.00883364 -0.00860217 -0.00837273 -0.0081433 -0.00791387 -0.00768652 -0.00746816 -0.00725191 -0.00703566 -0.00681942 -0.00660525 -0.00639972 -0.00619622 -0.00599272 -0.00578922 -0.00558772 -0.0053945 -0.00520338 -0.00501227 -0.00482116 -0.00463214 -0.0044511 -0.00427216 -0.00409323 -0.00391429 -0.0037374 -0.00356817 -0.00340099 -0.00323381 -0.00306663 -0.00290149 -0.00274344 -0.00258726 -0.00243109 -0.00227491 -0.00212077 -0.00197326 -0.00182727 -0.00168129 -0.00153531 -0.00139111 -0.00125315 -0.00111679 -0.000980427 -0.000844067 -0.000709482 -0.000580806 -0.00045374 -0.000326674 -0.000199607 -7.41862e-05 4.54829e-05 0.000163537 0.00028159 0.000399644 0.00051608 0.000627067 0.000736469 0.000845872 0.000955274 0.00106305 0.00116579 0.00126698 0.00136817 0.00146936 0.00156896 0.00166386 0.00175729 0.00185073 0.00194416 0.00203608 0.00212362 0.00220972 0.00229583 0.00238194 0.00246656 0.00254707 0.00262624 0.00270542 0.00278459 0.00286236 0.0029363 0.00300893 0.00308155 0.00315418 0.00322541 0.00329311 0.00335956 0.00342601 0.00349246 0.00355762 0.00361947 0.00368011 0.00374075 0.00380138 0.00386074 0.00391706 0.00397224 0.00402742 0.0040826 0.00413657 0.00418777 0.00423782 0.00428788 0.00433793 0.00438679 0.0044331 0.00447833 0.00452356 0.00456879 0.0046129 0.00465466 0.00469537 0.00473607 0.00477678 0.00481637 0.00485382 0.00489029 0.00492676 0.00496322 0.00499864 0.00503214 0.00506464 0.00509715 0.00512966 0.00516113 0.00519086 0.00521967 0.00524849 0.0052773 0.00530514 0.00533142 0.00535678 0.00538215 0.00540752 0.00543192 0.00545492 0.00547708 0.00549924 0.0055214 0.00554265 0.00556269 0.00558187 0.00560106 0.00562024 0.00563853 0.00565575 0.00567219 0.00568862 0.00570506 0.00572065 0.00573533 0.00574922 0.00576311 0.005777 0.00579006 0.00580232 0.00581387 0.00582541 0.00583695 0.00584772 0.00585782 0.0058672 0.00587658 0.00588596 0.00589456 0.00590263 0.00591003 0.00591742 0.00592481 0.00593149 0.00593773 0.00594331 0.00594889 0.00595446 0.00595932 0.00596386 0.00596778 0.0059717 0.00597562 0.00597886 0.00598191 0.00598432 0.00598673 0.00598914 0.00599088 0.00599251 0.00599356 0.0059946 0.00599564 0.00599606 0.00599645 0.00599626 0.00599606 0.00599586 0.00599504 0.00599428 0.00599297 0.00599166 0.00599036 0.00598847 0.00598673 0.00598444 0.00598215 0.00597986 0.00597699 0.00597434 0.00597117 0.005968 0.00596483 0.00596112 0.00595769 0.00595375 0.0059498 0.00594586 0.00594137 0.00593725 0.00593264 0.00592803 0.00592342 0.00591829 0.00591361 0.00590843 0.00590326 0.00589808 0.00589239 0.00588721 0.00588156 0.00587591 0.00587027 0.00586413 0.00585857 0.00585254 0.0058465 0.00584047 0.00583396 0.00582807 0.00582174 0.00581541 0.00580908 0.0058023 0.00579618 0.00578964 0.00578309 0.00577654 0.00576954 0.00576327 0.00575658 0.00574989 0.0057432 0.00573608 0.00572974 0.00572298 0.00571623 0.00570947 0.00570229 0.00569594 0.00568919 0.00568243 0.00567568 0.00566851 0.00566223 0.00565555 0.00564887 0.00564219 0.0056351 0.00562895 0.00562241 0.00561586 0.00560932 0.00560238 0.00559642 0.00559008 0.00558373 0.00557739 0.00557065 0.00556495 0.00555887 0.00555278 0.00554669 0.00554022 0.00553483 0.00552905 0.00552328 0.00551751 0.00551136 0.00550633 0.00550092 0.0054955 0.00549009 0.0054843 0.00547967 0.00547466 0.00546964 0.00546463 0.00545925 0.00545506 0.00545047 0.00544588 0.00544129 0.00543633 0.00543255 0.00542838 0.00542421 0.00542004 0.0054155 0.00541211 0.0054083 0.00540449 0.00540068 0.00539647 0.00539327 0.00538963 0.00538598 0.00538234 0.00537828 0.00537486 0.00537095 0.00536703 0.00536311 0.00535871 0.00535381 0.00534808 0.00534235 0.00533663 0.00533011 0.00532133 0.00531212 0.00530292 0.00529371 0.00528401 0.00525788 0.00522623 0.00519457 0.00516292 0.00512638 0.0051149 0.00511755 0.0051202 0.00512285 0.00514847 0.00523207 0.00530811 0.00538747 0.00545043 0.00549605 0.00548902 0.00548518 0.00548135 0.00547754 0.00547601 0.00550288 0.00553056 0.00555825 0.00557792 0.00559888 0.00561281 0.00563166 0.00565054 0.00566942 0.00568375 0.00574664 0.00581165 0.00587666 0.00594167 0.00599818 0.00608962 0.00616573 0.00624184 0.00631795 0.0063231 0.00630847 0.0062891 0.00626972 0.00625034 0.00624046 0.00603961 0.00581806 0.0055965 0.00537495 0.00504758 0.0045676 0.00407372 0.00357984 0.00308596 0.00262187 0.00235211 0.00207481 0.00179751 0.00152021 0.00127288 0.00117428 0.00106926 0.000964241 0.00085922 0.000773578 0.000667666 0.000556197 0.000444728 0.000333258 0.000255274
-0.0319474 -0.0319665 -0.0319856 -0.0320047 -0.0320238 -0.0320429 -0.0327438 -0.0336214 -0.0344041 -0.0351666 -0.0362248 -0.0372616 -0.0382519 -0.0392544 -0.0403138 -0.0412978 -0.042259 -0.043225 -0.0441656 -0.0451008 -0.0460068 -0.0469048 -0.0478109 -0.0487168 -0.049622 -0.050527 -0.0514187 -0.0523225 -0.0532312 -0.0541409 -0.0550613 -0.0559664 -0.0568787 -0.0577904 -0.0586999 -0.059615 -0.0605163 -0.0614147 -0.0623143 -0.0632141 -0.0641103 -0.0649913 -0.0658713 -0.0667509 -0.0676285 -0.0685044 -0.0693626 -0.0702183 -0.0710765 -0.0719352 -0.0727918 -0.0736258 -0.0744612 -0.0752961 -0.0761284 -0.0769621 -0.0777693 -0.0785747 -0.0793824 -0.0801907 -0.0809974 -0.0817731 -0.0825503 -0.0833269 -0.0841013 -0.0848773 -0.0856181 -0.0863581 -0.0871004 -0.0878431 -0.0885855 -0.0892879 -0.0899931 -0.0906978 -0.0914004 -0.0921059 -0.0927671 -0.0934293 -0.0940935 -0.0947581 -0.0954239 -0.0960408 -0.0966619 -0.0972826 -0.0979013 -0.0985241 -0.0990931 -0.0996661 -0.100241 -0.100816 -0.101395 -0.101914 -0.102442 -0.102969 -0.103495 -0.10403 -0.104502 -0.10498 -0.105458 -0.105937 -0.106421 -0.106844 -0.107271 -0.107698 -0.108124 -0.108556 -0.108925 -0.109298 -0.109671 -0.110043 -0.110419 -0.110734 -0.11105 -0.111366 -0.111683 -0.112002 -0.112261 -0.112521 -0.112781 -0.11304 -0.1133 -0.113502 -0.113704 -0.113906 -0.114109 -0.114311 -0.114455 -0.114599 -0.114743 -0.114887 -0.115029 -0.115112 -0.115198 -0.115283 -0.115368 -0.115456 -0.11548 -0.115508 -0.115537 -0.115566 -0.115599 -0.115567 -0.115541 -0.115515 -0.115489 -0.11547 -0.115386 -0.115308 -0.115228 -0.115148 -0.115075 -0.114939 -0.114806 -0.114674 -0.114544 -0.114416 -0.11423 -0.114048 -0.113864 -0.113679 -0.113499 -0.113263 -0.113029 -0.112796 -0.112565 -0.112336 -0.112054 -0.111777 -0.111497 -0.111216 -0.11094 -0.110615 -0.11029 -0.109967 -0.109645 -0.109325 -0.10896 -0.108597 -0.108232 -0.107866 -0.107503 -0.1071 -0.106696 -0.106292 -0.10589 -0.105487 -0.105046 -0.104608 -0.104168 -0.103727 -0.103289 -0.102813 -0.10234 -0.101867 -0.101396 -0.100928 -0.100422 -0.0999236 -0.0994225 -0.0989208 -0.0984258 -0.0978967 -0.0973704 -0.0968448 -0.0963218 -0.0958016 -0.095252 -0.0947072 -0.0941599 -0.093612 -0.0930689 -0.0925004 -0.0919333 -0.0913667 -0.0908026 -0.0902395 -0.0896549 -0.0890744 -0.0884916 -0.0879082 -0.0873288 -0.086731 -0.0861346 -0.0855386 -0.0849449 -0.0843522 -0.0837445 -0.0831407 -0.0825347 -0.0819283 -0.0813255 -0.0807107 -0.0800972 -0.079484 -0.0788729 -0.0782628 -0.0776436 -0.077028 -0.0764104 -0.0757924 -0.0751777 -0.0745567 -0.0739369 -0.0733174 -0.0726998 -0.072083 -0.0714627 -0.0708454 -0.0702266 -0.0696074 -0.0689912 -0.0683737 -0.0677574 -0.0671414 -0.0665269 -0.0659133 -0.0653007 -0.0646908 -0.0640796 -0.0634681 -0.0628592 -0.0622532 -0.0616483 -0.0610437 -0.0604403 -0.0598379 -0.0592403 -0.0586451 -0.0580488 -0.0574523 -0.0568582 -0.0562704 -0.0556838 -0.0550975 -0.0545121 -0.0539277 -0.0533513 -0.052777 -0.052202 -0.0516267 -0.0510534 -0.0504895 -0.0499267 -0.0493641 -0.0488023 -0.0482413 -0.0476911 -0.0471426 -0.0465936 -0.0460444 -0.0454969 -0.0449611 -0.0444263 -0.0438917 -0.0433576 -0.0428244 -0.0423039 -0.0417849 -0.0412655 -0.040746 -0.0402279 -0.0397233 -0.0392196 -0.038716 -0.0382128 -0.0377104 -0.0372222 -0.0367352 -0.036248 -0.0357607 -0.0352746 -0.034803 -0.0343324 -0.0338619 -0.0333916 -0.0329221 -0.0324676 -0.0320141 -0.0315606 -0.031107 -0.0306544 -0.030217 -0.0297806 -0.0293442 -0.0289078 -0.0284723 -0.0280521 -0.0276328 -0.0272136 -0.0267944 -0.0263761 -0.025973 -0.025571 -0.0251689 -0.0247667 -0.0243654 -0.0239794 -0.0235943 -0.0232094 -0.0228244 -0.0224404 -0.0220714 -0.0217038 -0.0213361 -0.0209683 -0.0206017 -0.0202497 -0.019899 -0.0195485 -0.019198 -0.0188487 -0.0185133 -0.0181794 -0.0178454 -0.0175115 -0.0171788 -0.0168602 -0.0165425 -0.0162247 -0.015907 -0.0155903 -0.0152878 -0.0149858 -0.0146838 -0.0143816 -0.0140799 -0.0137934 -0.0135064 -0.0132197 -0.0129331 -0.0126462 -0.0123749 -0.0121032 -0.0118315 -0.0115594 -0.0112872 -0.0110302 -0.0107728 -0.0105157 -0.0102587 -0.0100012 -0.00975846 -0.00951576 -0.00927299 -0.00902988 -0.00878696 -0.00855798 -0.00832863 -0.00809969 -0.00787083 -0.00764149 -0.0074258 -0.00721028 -0.00699465 -0.00677852 -0.00656265 -0.00635956 -0.00615617 -0.00595331 -0.00575056 -0.00554752 -0.00535653 -0.00516616 -0.00497567 -0.00478464 -0.00459416 -0.00441501 -0.00423613 -0.00405765 -0.00387926 -0.00370124 -0.00353324 -0.00336629 -0.00319931 -0.00303216 -0.00286583 -0.00270921 -0.0025531 -0.00239709 -0.00224111 -0.00208578 -0.00194008 -0.0017945 -0.00164887 -0.001503 -0.00135743 -0.00122202 -0.00108579 -0.000949943 -0.000814183 -0.000677661 -0.000551694 -0.000425293 -0.00029879 -0.000171836 -4.45938e-05 7.26792e-05 0.000190648 0.000308176 0.000425607 0.000543775 0.000652594 0.000761448 0.00087039 0.000979723 0.00108907 0.00118979 0.00129091 0.00139169 0.00149238 0.00159345 0.00168646 0.00177942 0.00187246 0.00196582 0.00205913 0.00214479 0.00223083 0.00231654 0.00240219 0.00248816 0.0025669 0.00264562 0.0027244 0.0028035 0.00288254 0.00295471 0.00302727 0.00309951 0.00317166 0.00324415 0.00331021 0.00337622 0.0034423 0.00350869 0.00357501 0.00363525 0.00369583 0.00375614 0.00381638 0.00387689 0.00393169 0.00398652 0.0040414 0.00409653 0.00415166 0.00420128 0.00425128 0.00430104 0.00435075 0.00440077 0.00444556 0.00449043 0.00453536 0.00458054 0.00462579 0.004666 0.00470666 0.00474707 0.00478742 0.00482814 0.00486414 0.00490027 0.00493646 0.00497287 0.00500941 0.00504141 0.00507387 0.00510611 0.0051383 0.00517087 0.0051992 0.0052277 0.00525626 0.00528502 0.00531395 0.0053388 0.00536413 0.00538925 0.00541432 0.0054398 0.00546147 0.00548335 0.00550528 0.0055274 0.00554972 0.00556838 0.00558753 0.00560649 0.00562541 0.00564474 0.00566068 0.00567685 0.00569307 0.00570947 0.0057261 0.00573945 0.0057533 0.00576699 0.00578063 0.00579471 0.00580574 0.00581705 0.00582839 0.0058399 0.00585167 0.0058605 0.00586985 0.00587904 0.00588819 0.0058978 0.00590467 0.00591185 0.00591906 0.00592642 0.00593408 0.0059391 0.00594464 0.00595005 0.00595543 0.00596127 0.00596465 0.00596838 0.00597214 0.00597603 0.00598026 0.00598209 0.00598448 0.00598674 0.00598897 0.0059917 0.00599219 0.00599306 0.00599396 0.00599498 0.00599636 0.00599558 0.00599536 0.00599502 0.00599466 0.00599481 0.00599293 0.00599147 0.00599003 0.00598871 0.00598779 0.00598492 0.00598261 0.0059802 0.00597776 0.00597584 0.00597211 0.0059688 0.0059655 0.00596232 0.00595953 0.00595501 0.00595105 0.005947 0.00594292 0.00593936 0.00593419 0.00592946 0.00592475 0.00592012 0.00591592 0.00591017 0.00590498 0.00589971 0.00589442 0.00588965 0.00588344 0.00587769 0.00587195 0.00586629 0.00586108 0.00585447 0.00584842 0.00584231 0.00583618 0.00583058 0.00582368 0.00581726 0.00581085 0.00580451 0.00579864 0.0057915 0.00578494 0.00577832 0.00577168 0.0057656 0.00575833 0.00575156 0.00574481 0.0057381 0.0057319 0.00572455 0.00571778 0.00571097 0.00570414 0.00569786 0.00569054 0.00568372 0.00567691 0.00567015 0.0056639 0.00565662 0.00564993 0.0056432 0.00563646 0.00563029 0.00562316 0.00561656 0.00560998 0.00560342 0.00559741 0.00559046 0.00558411 0.00557773 0.00557134 0.00556553 0.00555886 0.00555273 0.00554661 0.00554052 0.00553499 0.00552861 0.00552283 0.00551704 0.00551124 0.00550603 0.00550003 0.0054946 0.00548918 0.00548376 0.00547894 0.00547332 0.00546831 0.0054633 0.0054583 0.0054539 0.00544873 0.00544418 0.00543963 0.00543504 0.00543111 0.00542634 0.00542218 0.0054181 0.00541403 0.00541057 0.0054062 0.0054026 0.00539897 0.00539518 0.0053922 0.00538803 0.00538444 0.00538121 0.00537806 0.0053755 0.00537117 0.00536835 0.00536535 0.00536157 0.0053593 0.00535397 0.00534871 0.00534572 0.00534326 0.00534082 0.00533177 0.00533004 0.00532712 0.00531917 0.00531813 0.00530381 0.00527923 0.00527472 0.00527494 0.0052642 0.0052213 0.00523287 0.00524324 0.00524851 0.00531661 0.00541007 0.00547363 0.0055372 0.00557517 0.00552886 0.00550964 0.00550259 0.00549555 0.00548805 0.00549205 0.00550959 0.00552775 0.00554592 0.00555762 0.00556888 0.00556993 0.00557099 0.00557204 0.00557296 0.00557366 0.00559849 0.00562744 0.00565648 0.00568552 0.0056589 0.00569705 0.00575969 0.00582271 0.00588573 0.00596572 0.00618 0.00626902 0.00635148 0.00642759 0.00632067 0.00635654 0.00633716 0.00632071 0.00631126 0.00625588 0.00620934 0.00598779 0.00576623 0.0055321 0.00503851 0.00469889 0.00420501 0.00371113 0.00321458 0.00259579 0.00241416 0.00213686 0.00185956 0.00158226 0.00124247 0.00122337 0.00111835 0.00101333 0.000908307 0.000751146 0.000715148 0.000603681 0.000492214 0.000380747 0.000206754