# vtk DataFile Version 2.0
track0
ASCII
DATASET POLYDATA
POINTS 15780 float
-1.001 -0.05 0.0011
-1.0008 -0.05 0.0011
-1.0006 -0.05 0.0011
-1.0004 -0.05 0.0011
-1.0002 -0.05 0.0011
-1 -0.05 0.0011
-0.9875 -0.05 0.0011
-0.975 -0.05 0.0011
-0.9625 -0.05 0.0011
-0.95 -0.05 0.0011
-0.9375 -0.05 0.00109999
-0.925 -0.05 0.00109999
-0.9125 -0.05 0.00109999
-0.9 -0.05 0.00109999
-0.8875 -0.05 0.00109999
-0.875 -0.05 0.00109999
-0.8625 -0.05 0.00109999
-0.85 -0.05 0.00109999
-0.8375 -0.05 0.00109998
-0.825 -0.0500001 0.00109998
-0.8125 -0.0500001 0.00109998
-0.8 -0.0500001 0.00109998
-0.7875 -0.0500001 0.00109998
-0.775 -0.0500001 0.00109998
-0.7625 -0.0500001 0.00109998
-0.75 -0.0500001 0.00109998
-0.7375 -0.0500001 0.00109997
-0.725 -0.0500001 0.00109997
-0.7125 -0.0500001 0.00109997
-0.7 -0.0500001 0.00109997
-0.6875 -0.0500001 0.00109997
-0.675 -0.0500001 0.00109997
-0.6625 -0.0500001 0.00109997
-0.65 -0.0500001 0.00109996
-0.6375 -0.0500001 0.00109996
-0.625 -0.0500001 0.00109996
-0.6125 -0.0500001 0.00109996
-0.6 -0.0500001 0.00109996
-0.5875 -0.0500001 0.00109996
-0.575 -0.0500001 0.00109996
-0.5625 -0.0500001 0.00109996
-0.55 -0.0500001 0.00109995
-0.5375 -0.0500001 0.00109995
-0.525 -0.0500001 0.00109995
-0.5125 -0.0500001 0.00109995
-0.5 -0.0500001 0.00109995
-0.4875 -0.0500001 0.00109995
-0.475 -0.0500001 0.00109995
-0.4625 -0.0500001 0.00109994
-0.45 -0.0500002 0.00109994
-0.4375 -0.0500002 0.00109994
-0.425 -0.0500002 0.00109994
-0.4125 -0.0500002 0.00109994
-0.4 -0.0500002 0.00109994
-0.3875 -0.0500002 0.00109994
-0.375 -0.0500002 0.00109994
-0.3625 -0.0500002 0.00109993
-0.35 -0.0500002 0.00109993
-0.3375 -0.0500002 0.00109993
-0.325 -0.0500002 0.00109993
-0.3125 -0.0500002 0.00109993
-0.3 -0.0500002 0.00109993
-0.2875 -0.0500002 0.00109993
-0.275 -0.0500002 0.00109993
-0.2625 -0.0500002 0.00109992
-0.25 -0.0500002 0.00109992
-0.2375 -0.0500002 0.00109992
-0.225 -0.0500002 0.00109992
-0.2125 -0.0500002 0.00109992
-0.2 -0.0500002 0.00109992
-0.1875 -0.0500002 0.00109992
-0.175 -0.0500002 0.00109992
-0.1625 -0.0500002 0.00109991
-0.15 -0.0500002 0.00109991
-0.1375 -0.0500002 0.00109991
-0.125 -0.0500002 0.00109991
-0.1125 -0.0500002 0.00109991
-0.1 -0.0500002 0.00109991
-0.0875 -0.0500002 0.00109991
-0.075 -0.0500002 0.00109991
-0.0625 -0.0500002 0.00109991
-0.05 -0.0500003 0.00109991
-0.0375 -0.0500003 0.0010999
-0.025 -0.0500003 0.0010999
-0.0125 -0.0500003 0.0010999
2.10607e-13 -0.0500003 0.0010999
0.0125 -0.0500003 0.0010999
0.025 -0.0500003 0.0010999
0.0375 -0.0500003 0.0010999
0.05 -0.0500003 0.0010999
0.0625 -0.0500003 0.0010999
0.075 -0.0500003 0.0010999
0.0875 -0.0500003 0.0010999
0.1 -0.0500003 0.00109989
0.1125 -0.0500003 0.00109989
0.125 -0.0500003 0.00109989
0.1375 -0.0500003 0.00109989
0.15 -0.0500003 0.00109989
0.1625 -0.0500003 0.00109989
0.175 -0.0500003 0.00109989
0.1875 -0.0500003 0.00109989
0.2 -0.0500003 0.00109989
0.2125 -0.0500003 0.00109989
0.225 -0.0500003 0.00109989
0.2375 -0.0500003 0.00109989
0.25 -0.0500003 0.00109989
0.2625 -0.0500003 0.00109988
0.275 -0.0500003 0.00109988
0.2875 -0.0500003 0.00109988
0.3 -0.0500003 0.00109988
0.3125 -0.0500003 0.00109988
0.325 -0.0500003 0.00109988
0.3375 -0.0500003 0.00109988
0.35 -0.0500003 0.00109988
0.3625 -0.0500003 0.00109988
0.375 -0.0500003 0.00109988
0.3875 -0.0500003 0.00109988
0.4 -0.0500004 0.00109988
0.4125 -0.0500004 0.00109988
0.425 -0.0500004 0.00109988
0.4375 -0.0500004 0.00109988
0.45 -0.0500004 0.00109988
0.4625 -0.0500004 0.00109988
0.475 -0.0500004 0.00109988
0.4875 -0.0500004 0.00109988
0.5 -0.0500004 0.00109988
0.5125 -0.0500004 0.00109988
0.525 -0.0500004 0.00109988
0.5375 -0.0500004 0.00109988
0.55 -0.0500004 0.00109988
0.5625 -0.0500004 0.00109988
0.575 -0.0500004 0.00109987
0.5875 -0.0500004 0.00109987
0.6 -0.0500004 0.00109987
0.6125 -0.0500004 0.00109987
0.625 -0.0500004 0.00109987
0.6375 -0.0500004 0.00109987
0.65 -0.0500004 0.00109987
0.6625 -0.0500004 0.00109987
0.675 -0.0500004 0.00109987
0.6875 -0.0500004 0.00109987
0.7 -0.0500004 0.00109987
0.7125 -0.0500004 0.00109987
0.725 -0.0500004 0.00109987
0.7375 -0.0500004 0.00109987
0.75 -0.0500004 0.00109987
0.7625 -0.0500004 0.00109987
0.775 -0.0500004 0.00109987
0.7875 -0.0500004 0.00109987
0.8 -0.0500004 0.00109987
0.8125 -0.0500004 0.00109987
0.825 -0.0500004 0.00109987
0.8375 -0.0500004 0.00109987
0.85 -0.0500004 0.00109987
0.8625 -0.0500004 0.00109987
0.875 -0.0500004 0.00109987
0.8875 -0.0500004 0.00109987
0.9 -0.0500004 0.00109987
0.9125 -0.0500005 0.00109988
0.925 -0.0500005 0.00109988
0.9375 -0.0500005 0.00109988
0.95 -0.0500005 0.00109988
0.9625 -0.0500005 0.00109988
0.975 -0.0500005 0.00109988
0.9875 -0.0500005 0.00109988
1 -0.0500005 0.00109988
1.0125 -0.0500005 0.00109988
1.025 -0.0500005 0.00109988
1.0375 -0.0500005 0.00109988
1.05 -0.0500005 0.00109988
1.0625 -0.0500005 0.00109988
1.075 -0.0500005 0.00109988
1.0875 -0.0500005 0.00109988
1.1 -0.0500005 0.00109988
1.1125 -0.0500005 0.00109988
1.125 -0.0500005 0.00109988
1.1375 -0.0500005 0.00109988
1.15 -0.0500005 0.00109988
1.1625 -0.0500005 0.00109988
1.175 -0.0500005 0.00109988
1.1875 -0.0500005 0.00109988
1.2 -0.0500005 0.00109988
1.2125 -0.0500005 0.00109988
1.225 -0.0500005 0.00109988
1.2375 -0.0500005 0.00109989
1.25 -0.0500005 0.00109989
1.2625 -0.0500005 0.00109989
1.275 -0.0500005 0.00109989
1.2875 -0.0500005 0.00109989
1.3 -0.0500005 0.00109989
1.3125 -0.0500005 0.00109989
1.325 -0.0500005 0.00109989
1.3375 -0.0500005 0.00109989
1.35 -0.0500005 0.00109989
1.3625 -0.0500005 0.00109989
1.375 -0.0500005 0.00109989
1.3875 -0.0500005 0.00109989
1.4 -0.0500005 0.00109989
1.4125 -0.0500005 0.00109989
1.425 -0.0500005 0.00109989
1.4375 -0.0500005 0.0010999
1.45 -0.0500005 0.0010999
1.4625 -0.0500005 0.0010999
1.475 -0.0500005 0.0010999
1.4875 -0.0500005 0.0010999
1.5 -0.0500006 0.0010999
1.5125 -0.0500006 0.0010999
1.525 -0.0500006 0.0010999
1.5375 -0.0500006 0.0010999
1.55 -0.0500006 0.0010999
1.5625 -0.0500006 0.0010999
1.575 -0.0500006 0.0010999
1.5875 -0.0500006 0.0010999
1.6 -0.0500006 0.0010999
1.6125 -0.0500006 0.00109991
1.625 -0.0500006 0.00109991
1.6375 -0.0500006 0.00109991
1.65 -0.0500006 0.00109991
1.6625 -0.0500006 0.00109991
1.675 -0.0500006 0.00109991
1.6875 -0.0500006 0.00109991
1.7 -0.0500006 0.00109991
1.7125 -0.0500006 0.00109991
1.725 -0.0500006 0.00109991
1.7375 -0.0500006 0.00109991
1.75 -0.0500006 0.00109991
1.7625 -0.0500006 0.00109992
1.775 -0.0500006 0.00109992
1.7875 -0.0500006 0.00109992
1.8 -0.0500006 0.00109992
1.8125 -0.0500006 0.00109992
1.825 -0.0500006 0.00109992
1.8375 -0.0500006 0.00109992
1.85 -0.0500006 0.00109992
1.8625 -0.0500006 0.00109992
1.875 -0.0500006 0.00109992
1.8875 -0.0500006 0.00109992
1.9 -0.0500006 0.00109992
1.9125 -0.0500006 0.00109993
1.925 -0.0500006 0.00109993
1.9375 -0.0500006 0.00109993
1.95 -0.0500006 0.00109993
1.9625 -0.0500006 0.00109993
1.975 -0.0500006 0.00109993
1.9875 -0.0500006 0.00109993
2 -0.0500006 0.00109993
2.0125 -0.0500006 0.00109993
2.025 -0.0500006 0.00109993
2.0375 -0.0500006 0.00109993
2.05 -0.0500006 0.00109993
2.0625 -0.0500006 0.00109993
2.075 -0.0500006 0.00109994
2.0875 -0.0500006 0.00109994
2.1 -0.0500006 0.00109994
2.1125 -0.0500006 0.00109994
2.125 -0.0500006 0.00109994
2.1375 -0.0500006 0.00109994
2.15 -0.0500006 0.00109994
2.1625 -0.0500006 0.00109994
2.175 -0.0500007 0.00109994
2.1875 -0.0500007 0.00109994
2.2 -0.0500007 0.00109994
2.2125 -0.0500007 0.00109994
2.225 -0.0500007 0.00109995
2.2375 -0.0500007 0.00109995
2.25 -0.0500007 0.00109995
2.2625 -0.0500007 0.00109995
2.275 -0.0500007 0.00109995
2.2875 -0.0500007 0.00109995
2.3 -0.0500007 0.00109995
2.3125 -0.0500007 0.00109995
2.325 -0.0500007 0.00109995
2.3375 -0.0500007 0.00109995
2.35 -0.0500007 0.00109995
2.3625 -0.0500007 0.00109995
2.375 -0.0500007 0.00109995
2.3875 -0.0500007 0.00109996
2.4 -0.0500007 0.00109996
2.4125 -0.0500007 0.00109996
2.425 -0.0500007 0.00109996
2.4375 -0.0500007 0.00109996
2.45 -0.0500007 0.00109996
2.4625 -0.0500007 0.00109996
2.475 -0.0500007 0.00109996
2.4875 -0.0500007 0.00109996
2.5 -0.0500007 0.00109996
2.5125 -0.0500007 0.00109996
2.525 -0.0500007 0.00109996
2.5375 -0.0500007 0.00109996
2.55 -0.0500007 0.00109996
2.5625 -0.0500007 0.00109997
2.575 -0.0500007 0.00109997
2.5875 -0.0500007 0.00109997
2.6 -0.0500007 0.00109997
2.6125 -0.0500007 0.00109997
2.625 -0.0500007 0.00109997
2.6375 -0.0500007 0.00109997
2.65 -0.0500007 0.00109997
2.6625 -0.0500007 0.00109997
2.675 -0.0500007 0.00109997
2.6875 -0.0500007 0.00109997
2.7 -0.0500007 0.00109997
2.7125 -0.0500007 0.00109997
2.725 -0.0500007 0.00109997
2.7375 -0.0500007 0.00109997
2.75 -0.0500007 0.00109997
2.7625 -0.0500007 0.00109998
2.775 -0.0500007 0.00109998
2.7875 -0.0500007 0.00109998
2.8 -0.0500007 0.00109998
2.8125 -0.0500007 0.00109998
2.825 -0.0500007 0.00109998
2.8375 -0.0500007 0.00109998
2.85 -0.0500007 0.00109998
2.8625 -0.0500008 0.00109998
2.875 -0.0500008 0.00109998
2.8875 -0.0500008 0.00109998
2.9 -0.0500008 0.00109998
2.9125 -0.0500008 0.00109998
2.925 -0.0500008 0.00109998
2.9375 -0.0500008 0.00109998
2.95 -0.0500008 0.00109998
2.9625 -0.0500008 0.00109998
2.975 -0.0500008 0.00109998
2.9875 -0.0500008 0.00109998
3 -0.0500008 0.00109998
3.0125 -0.0500008 0.00109999
3.025 -0.0500008 0.00109999
3.0375 -0.0500008 0.00109999
3.05 -0.0500008 0.00109999
3.0625 -0.0500008 0.00109999
3.075 -0.0500008 0.00109999
3.0875 -0.0500008 0.00109999
3.1 -0.0500008 0.00109999
3.1125 -0.0500008 0.00109999
3.125 -0.0500008 0.00109999
3.1375 -0.0500008 0.00109999
3.15 -0.0500008 0.00109999
3.1625 -0.0500008 0.00109999
3.175 -0.0500008 0.00109999
3.1875 -0.0500008 0.00109999
3.2 -0.0500008 0.00109999
3.2125 -0.0500008 0.00109999
3.225 -0.0500008 0.00109999
3.2375 -0.0500008 0.00109999
3.25 -0.0500008 0.00109999
3.2625 -0.0500008 0.00109999
3.275 -0.0500008 0.00109999
3.2875 -0.0500008 0.00109999
3.3 -0.0500008 0.00109999
3.3125 -0.0500008 0.00109999
3.325 -0.0500008 0.00109999
3.3375 -0.0500008 0.00109999
3.35 -0.0500008 0.0011
3.3625 -0.0500008 0.0011
[...]
POINT_DATA 15780
 FIELD attributes 2
p 1 15780 float
-0.031098 -0.0311141 -0.0311301 -0.0311462 -0.0311622 -0.0311783 -0.0321097 -0.0330335 -0.0339572 -0.034881 -0.0359014 -0.0369652 -0.0380316 -0.0390979 -0.0401643 -0.041184 -0.0421674 -0.0431322 -0.044097 -0.0450618 -0.045975 -0.0468728 -0.0477753 -0.0486779 -0.0495804 -0.0504772 -0.0513777 -0.0522793 -0.0531808 -0.0540823 -0.0549831 -0.0558906 -0.0567985 -0.0577065 -0.0586145 -0.0595219 -0.0604215 -0.061319 -0.0622165 -0.063114 -0.0640086 -0.0648876 -0.0657648 -0.066642 -0.0675191 -0.0683942 -0.0692515 -0.0701068 -0.0709622 -0.0718175 -0.0726708 -0.0735055 -0.0743375 -0.0751696 -0.0760016 -0.0768313 -0.0776396 -0.0784447 -0.0792499 -0.0800551 -0.0808574 -0.0816355 -0.0824098 -0.083184 -0.0839583 -0.084729 -0.0854731 -0.0862131 -0.086953 -0.087693 -0.088429 -0.0891364 -0.0898389 -0.0905415 -0.091244 -0.091942 -0.0926093 -0.0932714 -0.0939336 -0.0945958 -0.0952529 -0.0958774 -0.0964962 -0.0971151 -0.0977339 -0.0983472 -0.0989262 -0.0994994 -0.100073 -0.100646 -0.101213 -0.101746 -0.102272 -0.102798 -0.103324 -0.103844 -0.104329 -0.104806 -0.105284 -0.105762 -0.106233 -0.106667 -0.107094 -0.107521 -0.107947 -0.108367 -0.108747 -0.10912 -0.109493 -0.109866 -0.110231 -0.110556 -0.110873 -0.11119 -0.111507 -0.111816 -0.112084 -0.112344 -0.112605 -0.112865 -0.113117 -0.113328 -0.11353 -0.113733 -0.113936 -0.11413 -0.114282 -0.114427 -0.114571 -0.114715 -0.11485 -0.114943 -0.115029 -0.115114 -0.1152 -0.115277 -0.115314 -0.115342 -0.115371 -0.1154 -0.115421 -0.115403 -0.115378 -0.115352 -0.115327 -0.115294 -0.115223 -0.115146 -0.115068 -0.11499 -0.114905 -0.114783 -0.114653 -0.114524 -0.114394 -0.114257 -0.114083 -0.113902 -0.113721 -0.11354 -0.113351 -0.113128 -0.112897 -0.112667 -0.112436 -0.112199 -0.111928 -0.111652 -0.111375 -0.111098 -0.110814 -0.1105 -0.110179 -0.109859 -0.109538 -0.109211 -0.108854 -0.108492 -0.108129 -0.107767 -0.107398 -0.107001 -0.106599 -0.106197 -0.105796 -0.105388 -0.104955 -0.104516 -0.104078 -0.10364 -0.103196 -0.102729 -0.102259 -0.101789 -0.101318 -0.100843 -0.100349 -0.0998509 -0.0993528 -0.0988548 -0.0983526 -0.0978337 -0.0973113 -0.0967888 -0.0962664 -0.0957401 -0.0951992 -0.0946548 -0.0941104 -0.0935661 -0.093018 -0.092457 -0.0918933 -0.0913295 -0.0907657 -0.0901988 -0.0896211 -0.0890409 -0.0884607 -0.0878806 -0.0872974 -0.086706 -0.0861126 -0.0855192 -0.0849258 -0.0843301 -0.0837283 -0.0831247 -0.0825212 -0.0819177 -0.0813121 -0.0807024 -0.0800916 -0.0794808 -0.07887 -0.0782577 -0.0776433 -0.0770279 -0.0764125 -0.0757971 -0.0751804 -0.0745634 -0.073946 -0.0733286 -0.0727112 -0.0720931 -0.0714763 -0.0708593 -0.0702423 -0.0696253 -0.0690078 -0.0683932 -0.0677789 -0.0671645 -0.0665502 -0.0659358 -0.0653258 -0.0647161 -0.0641064 -0.0634967 -0.0628871 -0.0622831 -0.0616799 -0.0610767 -0.0604735 -0.0598708 -0.0592749 -0.0586799 -0.0580848 -0.0574898 -0.0568954 -0.0563089 -0.0557237 -0.0551384 -0.0545532 -0.0539689 -0.0533935 -0.0528194 -0.0522452 -0.0516711 -0.0510981 -0.0505347 -0.0499729 -0.0494112 -0.0488494 -0.0482891 -0.047739 -0.0471907 -0.0466423 -0.0460939 -0.0455471 -0.0450111 -0.0444771 -0.0439431 -0.043409 -0.0428768 -0.0423559 -0.0418369 -0.041318 -0.0407991 -0.0402819 -0.0397766 -0.0392734 -0.0387702 -0.038267 -0.0377657 -0.0372766 -0.0367897 -0.0363027 -0.0358157 -0.0353308 -0.0348582 -0.0343878 -0.0339175 -0.0334471 -0.0329789 -0.0325232 -0.0320697 -0.0316163 -0.0311628 -0.0307115 -0.0302727 -0.0298363 -0.0293999 -0.0289635 -0.0285294 -0.0281077 -0.0276883 -0.027269 -0.0268497 -0.0264327 -0.0260281 -0.0256258 -0.0252236 -0.0248214 -0.0244215 -0.024034 -0.0236489 -0.0232638 -0.0228787 -0.0224959 -0.0221255 -0.0217577 -0.0213898 -0.0210219 -0.0206565 -0.0203032 -0.0199525 -0.0196018 -0.019251 -0.0189026 -0.018566 -0.0182319 -0.0178979 -0.0175639 -0.0172323 -0.016912 -0.0165941 -0.0162762 -0.0159583 -0.0156429 -0.0153383 -0.015036 -0.0147336 -0.0144313 -0.0141315 -0.0138422 -0.0135551 -0.013268 -0.012981 -0.0126965 -0.0124222 -0.0121501 -0.011878 -0.0116059 -0.0113361 -0.0110764 -0.010819 -0.0105615 -0.010304 -0.0100488 -0.00980354 -0.00956039 -0.00931723 -0.00907407 -0.00883312 -0.00860164 -0.00837221 -0.00814278 -0.00791334 -0.00768599 -0.00746764 -0.00725139 -0.00703514 -0.00681889 -0.00660473 -0.0063992 -0.0061957 -0.0059922 -0.0057887 -0.00558721 -0.00539398 -0.00520287 -0.00501175 -0.00482064 -0.00463163 -0.00445058 -0.00427165 -0.00409271 -0.00391378 -0.00373689 -0.00356766 -0.00340048 -0.00323329 -0.00306611 -0.00290098 -0.00274293 -0.00258675 -0.00243057 -0.0022744 -0.00212025 -0.00197274 -0.00182676 -0.00168078 -0.0015348 -0.00139059 -0.00125263 -0.00111627 -0.000979914 -0.000843554 -0.000708969 -0.000580294 -0.000453228 -0.000326162 -0.000199095 -7.36748e-05 4.59941e-05 0.000164047 0.000282101 0.000400154 0.000516589 0.000627576 0.000736978 0.00084638 0.000955782 0.00106356 0.0011663 0.00126749 0.00136868 0.00146987 0.00156947 0.00166436 0.0017578 0.00185123 0.00194467 0.00203659 0.00212413 0.00221023 0.00229634 0.00238245 0.00246707 0.00254758 0.00262675 0.00270593 0.0027851 0.00286288 0.00293682 0.00300944 0.00308207 0.00315469 0.00322592 0.00329362 0.00336007 0.00342653 0.00349298 0.00355813 0.00361999 0.00368062 0.00374126 0.0038019 0.00386125 0.00391758 0.00397276 0.00402794 0.00408312 0.00413709 0.00418828 0.00423834 0.0042884 0.00433845 0.00438731 0.00443362 0.00447885 0.00452409 0.00456932 0.00461342 0.00465519 0.0046959 0.0047366 0.00477731 0.0048169 0.00485436 0.00489082 0.00492729 0.00496376 0.00499918 0.00503267 0.00506518 0.00509769 0.0051302 0.00516167 0.00519141 0.00522022 0.00524903 0.00527785 0.00530569 0.00533197 0.00535733 0.0053827 0.00540807 0.00543247 0.00545547 0.00547763 0.00549979 0.00552195 0.00554321 0.00556324 0.00558243 0.00560162 0.0056208 0.00563909 0.00565631 0.00567275 0.00568918 0.00570562 0.00572121 0.00573589 0.00574978 0.00576367 0.00577756 0.00579062 0.00580288 0.00581443 0.00582597 0.00583751 0.00584828 0.00585838 0.00586776 0.00587713 0.00588651 0.00589511 0.00590318 0.00591058 0.00591797 0.00592536 0.00593204 0.00593828 0.00594386 0.00594943 0.005955 0.00595986 0.0059644 0.00596832 0.00597224 0.00597615 0.0059794 0.00598244 0.00598485 0.00598726 0.00598967 0.00599141 0.00599305 0.00599409 0.00599513 0.00599617 0.00599659 0.00599698 0.00599679 0.00599659 0.00599639 0.00599557 0.0059948 0.0059935 0.00599219 0.00599088 0.00598899 0.00598726 0.00598497 0.00598268 0.00598039 0.00597751 0.00597486 0.00597169 0.00596852 0.00596535 0.00596164 0.00595821 0.00595427 0.00595032 0.00594638 0.00594189 0.00593776 0.00593315 0.00592854 0.00592394 0.00591881 0.00591412 0.00590895 0.00590377 0.0058986 0.00589291 0.00588772 0.00588208 0.00587643 0.00587078 0.00586465 0.00585908 0.00585305 0.00584702 0.00584099 0.00583448 0.00582858 0.00582225 0.00581592 0.00580959 0.0058028 0.00579669 0.00579014 0.00578359 0.00577704 0.00577004 0.00576377 0.00575708 0.00575039 0.0057437 0.00573657 0.00573023 0.00572348 0.00571672 0.00570996 0.00570277 0.00569642 0.00568967 0.00568292 0.00567616 0.00566899 0.00566271 0.00565603 0.00564935 0.00564267 0.00563558 0.00562942 0.00562288 0.00561633 0.00560979 0.00560284 0.00559689 0.00559054 0.00558419 0.00557785 0.00557111 0.00556541 0.00555932 0.00555323 0.00554714 0.00554067 0.00553528 0.0055295 0.00552372 0.00551795 0.0055118 0.00550677 0.00550135 0.00549594 0.00549053 0.00548473 0.0054801 0.00547508 0.00547007 0.00546505 0.00545968 0.00545548 0.00545089 0.0054463 0.00544171 0.00543674 0.00543296 0.00542879 0.00542462 0.00542045 0.00541591 0.00541252 0.0054087 0.00540489 0.00540107 0.00539686 0.00539366 0.00539002 0.00538637 0.00538272 0.00537866 0.00537525 0.00537133 0.00536741 0.00536349 0.00535908 0.00535417 0.00534844 0.00534271 0.00533698 0.00533047 0.00532169 0.00531247 0.00530326 0.00529405 0.00528435 0.00525821 0.00522656 0.0051949 0.00516324 0.0051267 0.00511521 0.00511786 0.00512051 0.00512316 0.00514877 0.00523236 0.00530839 0.00538775 0.00545071 0.00549631 0.00548928 0.00548544 0.0054816 0.00547779 0.00547625 0.00550312 0.00553079 0.00555846 0.00557812 0.00559908 0.005613 0.00563184 0.00565071 0.00566958 0.00568391 0.00574678 0.00581179 0.00587679 0.0059418 0.0059983 0.00608973 0.00616583 0.00624193 0.00631802 0.00632316 0.00630853 0.00628914 0.00626976 0.00625038 0.00624049 0.00603964 0.00581807 0.00559651 0.00537495 0.00504757 0.00456759 0.00407371 0.00357983 0.00308595 0.00262186 0.0023521 0.0020748 0.0017975 0.0015202 0.00127286 0.00117427 0.00106925 0.000964228 0.000859208 0.000773566 0.000667656 0.00055619 0.000444723 0.000333255 0.000255272
-0.0319474 -0.0319665 -0.0319856 -0.0320047 -0.0320238 -0.0320429 -0.0327438 -0.0336214 -0.0344041 -0.0351666 -0.0362248 -0.0372615 -0.0382519 -0.0392543 -0.0403138 -0.0412977 -0.0422589 -0.0432249 -0.0441655 -0.0451008 -0.0460067 -0.0469048 -0.0478108 -0.0487167 -0.0496219 -0.0505269 -0.0514186 -0.0523224 -0.0532311 -0.0541408 -0.0550612 -0.0559663 -0.0568785 -0.0577903 -0.0586998 -0.0596148 -0.0605162 -0.0614145 -0.0623141 -0.063214 -0.0641101 -0.0649912 -0.0658712 -0.0667508 -0.0676284 -0.0685043 -0.0693624 -0.0702181 -0.0710763 -0.0719351 -0.0727916 -0.0736256 -0.074461 -0.0752959 -0.0761282 -0.0769619 -0.0777691 -0.0785745 -0.0793822 -0.0801905 -0.0809972 -0.0817729 -0.0825501 -0.0833267 -0.0841011 -0.0848771 -0.0856179 -0.0863579 -0.0871002 -0.0878429 -0.0885853 -0.0892877 -0.0899929 -0.0906976 -0.0914002 -0.0921056 -0.0927669 -0.0934291 -0.0940933 -0.0947579 -0.0954237 -0.0960406 -0.0966616 -0.0972823 -0.0979011 -0.0985238 -0.0990929 -0.0996658 -0.100241 -0.100816 -0.101395 -0.101914 -0.102442 -0.102969 -0.103495 -0.10403 -0.104502 -0.104979 -0.105458 -0.105936 -0.106421 -0.106844 -0.107271 -0.107697 -0.108124 -0.108555 -0.108925 -0.109298 -0.109671 -0.110043 -0.110418 -0.110733 -0.111049 -0.111366 -0.111683 -0.112001 -0.112261 -0.112521 -0.11278 -0.113039 -0.113299 -0.113502 -0.113704 -0.113906 -0.114108 -0.11431 -0.114455 -0.114599 -0.114743 -0.114886 -0.115029 -0.115112 -0.115197 -0.115283 -0.115368 -0.115455 -0.11548 -0.115508 -0.115537 -0.115566 -0.115599 -0.115567 -0.115541 -0.115515 -0.115489 -0.115469 -0.115385 -0.115307 -0.115228 -0.115148 -0.115075 -0.114939 -0.114806 -0.114673 -0.114543 -0.114416 -0.114229 -0.114048 -0.113863 -0.113679 -0.113499 -0.113263 -0.113029 -0.112796 -0.112565 -0.112335 -0.112053 -0.111776 -0.111496 -0.111216 -0.110939 -0.110614 -0.11029 -0.109966 -0.109645 -0.109324 -0.108959 -0.108597 -0.108232 -0.107866 -0.107502 -0.107099 -0.106695 -0.106291 -0.105889 -0.105486 -0.105046 -0.104607 -0.104167 -0.103727 -0.103288 -0.102812 -0.102339 -0.101866 -0.101395 -0.100927 -0.100422 -0.0999231 -0.099422 -0.0989203 -0.0984253 -0.0978962 -0.0973699 -0.0968443 -0.0963213 -0.0958011 -0.0952515 -0.0947068 -0.0941594 -0.0936115 -0.0930684 -0.0924999 -0.0919328 -0.0913662 -0.0908021 -0.090239 -0.0896544 -0.0890739 -0.0884911 -0.0879077 -0.0873283 -0.0867305 -0.0861341 -0.0855381 -0.0849444 -0.0843517 -0.083744 -0.0831402 -0.0825342 -0.0819278 -0.081325 -0.0807102 -0.0800967 -0.0794835 -0.0788724 -0.0782623 -0.0776431 -0.0770275 -0.0764099 -0.0757919 -0.0751772 -0.0745562 -0.0739364 -0.0733169 -0.0726993 -0.0720825 -0.0714622 -0.0708449 -0.0702261 -0.0696069 -0.0689907 -0.0683732 -0.0677569 -0.0671409 -0.0665264 -0.0659128 -0.0653002 -0.0646903 -0.0640791 -0.0634676 -0.0628587 -0.0622526 -0.0616478 -0.0610432 -0.0604398 -0.0598374 -0.0592397 -0.0586446 -0.0580483 -0.0574518 -0.0568576 -0.0562699 -0.0556833 -0.0550969 -0.0545115 -0.0539271 -0.0533507 -0.0527765 -0.0522014 -0.0516261 -0.0510529 -0.050489 -0.0499262 -0.0493636 -0.0488017 -0.0482408 -0.0476905 -0.0471421 -0.046593 -0.0460438 -0.0454963 -0.0449605 -0.0444258 -0.0438911 -0.0433571 -0.0428239 -0.0423033 -0.0417844 -0.041265 -0.0407454 -0.0402274 -0.0397227 -0.0392191 -0.0387155 -0.0382123 -0.0377099 -0.0372216 -0.0367347 -0.0362474 -0.0357601 -0.0352741 -0.0348025 -0.0343319 -0.0338614 -0.0333911 -0.0329216 -0.0324671 -0.0320136 -0.0315601 -0.0311065 -0.0306539 -0.0302165 -0.0297801 -0.0293437 -0.0289073 -0.0284718 -0.0280516 -0.0276323 -0.0272131 -0.0267939 -0.0263755 -0.0259725 -0.0255704 -0.0251684 -0.0247662 -0.0243649 -0.0239789 -0.0235938 -0.0232089 -0.0228239 -0.0224399 -0.0220709 -0.0217033 -0.0213356 -0.0209678 -0.0206012 -0.0202492 -0.0198985 -0.019548 -0.0191975 -0.0188482 -0.0185128 -0.0181789 -0.0178449 -0.017511 -0.0171783 -0.0168597 -0.0165419 -0.0162242 -0.0159065 -0.0155898 -0.0152873 -0.0149853 -0.0146833 -0.0143811 -0.0140794 -0.0137929 -0.0135059 -0.0132192 -0.0129326 -0.0126457 -0.0123743 -0.0121027 -0.011831 -0.0115589 -0.0112867 -0.0110297 -0.0107723 -0.0105152 -0.0102582 -0.0100007 -0.00975794 -0.00951524 -0.00927247 -0.00902936 -0.00878644 -0.00855746 -0.00832811 -0.00809916 -0.00787031 -0.00764096 -0.00742528 -0.00720976 -0.00699413 -0.006778 -0.00656213 -0.00635904 -0.00615565 -0.00595279 -0.00575004 -0.005547 -0.00535601 -0.00516565 -0.00497516 -0.00478413 -0.00459364 -0.00441449 -0.00423562 -0.00405714 -0.00387875 -0.00370073 -0.00353272 -0.00336578 -0.00319879 -0.00303165 -0.00286532 -0.00270869 -0.00255259 -0.00239658 -0.0022406 -0.00208527 -0.00193957 -0.00179399 -0.00164835 -0.00150249 -0.00135692 -0.0012215 -0.00108528 -0.00094943 -0.00081367 -0.000677148 -0.000551181 -0.00042478 -0.000298277 -0.000171323 -4.40819e-05 7.31906e-05 0.000191159 0.000308687 0.000426117 0.000544285 0.000653104 0.000761957 0.000870899 0.000980232 0.00108958 0.0011903 0.00129142 0.0013922 0.00149289 0.00159396 0.00168696 0.00177993 0.00187296 0.00196633 0.00205964 0.0021453 0.00223134 0.00231705 0.0024027 0.00248867 0.00256742 0.00264613 0.00272491 0.00280401 0.00288306 0.00295523 0.00302779 0.00310002 0.00317218 0.00324466 0.00331072 0.00337674 0.00344282 0.00350921 0.00357553 0.00363577 0.00369635 0.00375665 0.00381689 0.0038774 0.0039322 0.00398703 0.00404192 0.00409704 0.00415218 0.0042018 0.0042518 0.00430156 0.00435127 0.00440129 0.00444608 0.00449096 0.00453589 0.00458107 0.00462632 0.00466653 0.00470719 0.0047476 0.00478795 0.00482867 0.00486467 0.00490081 0.00493699 0.00497341 0.00500995 0.00504195 0.00507441 0.00510665 0.00513884 0.00517142 0.00519975 0.00522825 0.00525681 0.00528557 0.0053145 0.00533935 0.00536468 0.0053898 0.00541487 0.00544036 0.00546202 0.00548391 0.00550583 0.00552795 0.00555027 0.00556893 0.00558808 0.00560704 0.00562596 0.0056453 0.00566124 0.00567741 0.00569363 0.00571003 0.00572666 0.00574001 0.00575386 0.00576755 0.00578119 0.00579527 0.0058063 0.00581761 0.00582895 0.00584045 0.00585223 0.00586106 0.0058704 0.00587959 0.00588875 0.00589836 0.00590522 0.0059124 0.00591961 0.00592697 0.00593463 0.00593965 0.00594519 0.00595059 0.00595597 0.00596181 0.00596519 0.00596892 0.00597268 0.00597657 0.00598079 0.00598263 0.00598501 0.00598727 0.0059895 0.00599223 0.00599272 0.00599359 0.00599449 0.00599551 0.00599689 0.00599611 0.00599588 0.00599555 0.00599519 0.00599534 0.00599345 0.00599199 0.00599056 0.00598923 0.00598832 0.00598545 0.00598314 0.00598072 0.00597828 0.00597636 0.00597263 0.00596932 0.00596603 0.00596284 0.00596005 0.00595554 0.00595157 0.00594752 0.00594344 0.00593988 0.00593471 0.00592998 0.00592526 0.00592064 0.00591644 0.00591069 0.00590549 0.00590022 0.00589493 0.00589017 0.00588396 0.00587821 0.00587247 0.00586681 0.0058616 0.00585499 0.00584894 0.00584282 0.00583669 0.0058311 0.0058242 0.00581777 0.00581136 0.00580501 0.00579915 0.00579201 0.00578545 0.00577882 0.00577219 0.0057661 0.00575883 0.00575206 0.0057453 0.0057386 0.0057324 0.00572504 0.00571828 0.00571146 0.00570462 0.00569835 0.00569102 0.0056842 0.00567739 0.00567063 0.00566438 0.0056571 0.00565041 0.00564368 0.00563693 0.00563076 0.00562363 0.00561703 0.00561044 0.00560389 0.00559788 0.00559093 0.00558457 0.00557819 0.0055718 0.00556598 0.00555931 0.00555319 0.00554707 0.00554097 0.00553544 0.00552906 0.00552328 0.00551748 0.00551168 0.00550647 0.00550047 0.00549504 0.00548961 0.0054842 0.00547937 0.00547375 0.00546874 0.00546373 0.00545872 0.00545432 0.00544915 0.0054446 0.00544004 0.00543545 0.00543152 0.00542675 0.00542259 0.0054185 0.00541443 0.00541098 0.0054066 0.00540301 0.00539937 0.00539558 0.0053926 0.00538843 0.00538483 0.0053816 0.00537845 0.00537588 0.00537155 0.00536873 0.00536573 0.00536194 0.00535967 0.00535433 0.00534908 0.00534608 0.00534361 0.00534117 0.00533212 0.00533038 0.00532746 0.00531951 0.00531847 0.00530414 0.00527957 0.00527505 0.00527526 0.00526452 0.00522162 0.00523318 0.00524355 0.00524881 0.00531692 0.00541036 0.00547391 0.00553748 0.00557544 0.00552913 0.0055099 0.00550285 0.0054958 0.0054883 0.00549229 0.00550982 0.00552798 0.00554613 0.00555782 0.00556908 0.00557013 0.00557118 0.00557223 0.00557316 0.00557385 0.00559868 0.00562762 0.00565665 0.00568568 0.00565905 0.0056972 0.00575983 0.00582284 0.00588585 0.00596584 0.0061801 0.00626911 0.00635156 0.00642766 0.00632073 0.00635659 0.00633721 0.00632075 0.00631129 0.00625591 0.00620937 0.0059878 0.00576624 0.0055321 0.0050385 0.00469889 0.00420501 0.00371113 0.00321457 0.00259577 0.00241415 0.00213685 0.00185955 0.00158225 0.00124246 0.00122336 0.00111834 0.00101332 0.000908303 0.000751134 0.000715145 0.00060368 0.000492215 0.00038075 0.000206752