# vtk DataFile Version 2.0
track0
ASCII
DATASET POLYDATA
POINTS 15805 float
-1.001 -0.05 0.0011
-1.0008 -0.05 0.0011
-1.0006 -0.05 0.0011
-1.0004 -0.05 0.00109999
-1.0002 -0.05 0.00109999
-1 -0.05 0.00109999
-0.9875 -0.05 0.00109985
-0.975 -0.05 0.00109981
-0.9625 -0.0500001 0.00109977
-0.95 -0.0500001 0.00109972
-0.9375 -0.0500001 0.00109968
-0.925 -0.05 0.00109955
-0.9125 -0.05 0.0010995
-0.9 -0.05 0.00109945
-0.8875 -0.05 0.0010994
-0.875 -0.0499999 0.00109935
-0.8625 -0.0499998 0.00109921
-0.85 -0.0499998 0.00109915
-0.8375 -0.0499998 0.00109909
-0.825 -0.0499997 0.00109903
-0.8125 -0.0499997 0.00109897
-0.8 -0.0499997 0.00109884
-0.7875 -0.0499997 0.00109877
-0.775 -0.0499996 0.0010987
-0.7625 -0.0499996 0.00109863
-0.75 -0.0499996 0.00109856
-0.7375 -0.0499994 0.00109842
-0.725 -0.0499994 0.00109834
-0.7125 -0.0499994 0.00109827
-0.7 -0.0499993 0.00109819
-0.6875 -0.0499993 0.00109811
-0.675 -0.0499992 0.00109797
-0.6625 -0.0499991 0.00109789
-0.65 -0.0499991 0.00109781
-0.6375 -0.049999 0.00109772
-0.625 -0.049999 0.00109764
-0.6125 -0.049999 0.0010975
-0.6 -0.0499989 0.00109741
-0.5875 -0.0499989 0.00109733
-0.575 -0.0499988 0.00109724
-0.5625 -0.0499988 0.00109715
-0.55 -0.0499987 0.00109701
-0.5375 -0.0499987 0.00109692
-0.525 -0.0499986 0.00109683
-0.5125 -0.0499986 0.00109674
-0.5 -0.0499985 0.00109665
-0.4875 -0.0499984 0.00109649
-0.475 -0.0499983 0.00109639
-0.4625 -0.0499983 0.0010963
-0.45 -0.0499982 0.0010962
-0.4375 -0.0499982 0.00109611
-0.425 -0.049998 0.00109595
-0.4125 -0.049998 0.00109585
-0.4 -0.0499979 0.00109575
-0.3875 -0.0499978 0.00109565
-0.375 -0.0499978 0.00109555
-0.3625 -0.0499976 0.00109539
-0.35 -0.0499976 0.00109529
-0.3375 -0.0499975 0.00109518
-0.325 -0.0499974 0.00109508
-0.3125 -0.0499974 0.00109498
-0.3 -0.0499973 0.00109482
-0.2875 -0.0499973 0.00109471
-0.275 -0.0499972 0.0010946
-0.2625 -0.0499971 0.0010945
-0.25 -0.049997 0.00109439
-0.2375 -0.049997 0.00109422
-0.225 -0.0499969 0.00109411
-0.2125 -0.0499968 0.001094
-0.2 -0.0499968 0.00109389
-0.1875 -0.0499967 0.00109378
-0.175 -0.0499965 0.0010936
-0.1625 -0.0499965 0.00109349
-0.15 -0.0499964 0.00109338
-0.1375 -0.0499963 0.00109326
-0.125 -0.0499962 0.00109315
-0.1125 -0.0499962 0.00109297
-0.1 -0.0499961 0.00109285
-0.0875 -0.049996 0.00109274
-0.075 -0.0499959 0.00109262
-0.0625 -0.0499958 0.0010925
-0.05 -0.0499958 0.00109232
-0.0375 -0.0499957 0.0010922
-0.025 -0.0499956 0.00109208
-0.0125 -0.0499955 0.00109196
3.21665e-12 -0.0499954 0.00109184
0.0125 -0.0499952 0.00109165
0.025 -0.0499951 0.00109153
0.0375 -0.049995 0.0010914
0.05 -0.0499949 0.00109128
0.0625 -0.0499948 0.00109115
0.075 -0.0499947 0.00109096
0.0875 -0.0499945 0.00109083
0.1 -0.0499944 0.0010907
0.1125 -0.0499943 0.00109058
0.125 -0.0499942 0.00109045
0.1375 -0.0499941 0.00109025
0.15 -0.0499939 0.00109012
0.1625 -0.0499938 0.00108999
0.175 -0.0499937 0.00108986
0.1875 -0.0499936 0.00108973
0.2 -0.0499935 0.00108953
0.2125 -0.0499934 0.0010894
0.225 -0.0499933 0.00108926
0.2375 -0.0499932 0.00108913
0.25 -0.0499931 0.00108899
0.2625 -0.0499929 0.00108879
0.275 -0.0499928 0.00108865
0.2875 -0.0499926 0.00108852
0.3 -0.0499925 0.00108838
0.3125 -0.0499924 0.00108824
0.325 -0.0499922 0.00108803
0.3375 -0.0499921 0.00108789
0.35 -0.0499919 0.00108775
0.3625 -0.0499918 0.00108761
0.375 -0.0499917 0.00108747
0.3875 -0.0499916 0.00108727
0.4 -0.0499914 0.00108713
0.4125 -0.0499913 0.00108699
0.425 -0.0499912 0.00108684
0.4375 -0.049991 0.0010867
0.45 -0.049991 0.00108649
0.4625 -0.0499908 0.00108635
0.475 -0.0499906 0.0010862
0.4875 -0.0499905 0.00108606
0.5 -0.0499903 0.00108591
0.5125 -0.0499902 0.0010857
0.525 -0.04999 0.00108555
0.5375 -0.0499898 0.00108541
0.55 -0.0499897 0.00108526
0.5625 -0.0499895 0.00108511
0.575 -0.0499893 0.0010849
0.5875 -0.0499891 0.00108475
0.6 -0.049989 0.0010846
0.6125 -0.0499888 0.00108445
0.625 -0.0499886 0.00108431
0.6375 -0.0499884 0.00108409
0.65 -0.0499883 0.00108394
0.6625 -0.0499881 0.00108379
0.675 -0.0499879 0.00108364
0.6875 -0.0499877 0.00108349
0.7 -0.0499876 0.00108328
0.7125 -0.0499874 0.00108313
0.725 -0.0499873 0.00108298
0.7375 -0.0499871 0.00108283
0.75 -0.0499869 0.00108268
0.7625 -0.0499868 0.00108246
0.775 -0.0499866 0.00108231
0.7875 -0.0499864 0.00108216
0.8 -0.0499862 0.00108201
0.8125 -0.049986 0.00108186
0.825 -0.0499858 0.00108164
0.8375 -0.0499856 0.00108149
0.85 -0.0499854 0.00108134
0.8625 -0.0499852 0.00108118
0.875 -0.049985 0.00108103
0.8875 -0.0499849 0.00108082
0.9 -0.0499847 0.00108067
0.9125 -0.0499844 0.00108052
0.925 -0.0499842 0.00108036
0.9375 -0.049984 0.00108021
0.95 -0.0499839 0.00108
0.9625 -0.0499837 0.00107985
0.975 -0.0499834 0.0010797
0.9875 -0.0499832 0.00107954
1 -0.049983 0.00107939
1.0125 -0.0499828 0.00107918
1.025 -0.0499825 0.00107902
1.0375 -0.0499823 0.00107887
1.05 -0.049982 0.00107872
1.0625 -0.0499818 0.00107857
1.075 -0.0499816 0.00107836
1.0875 -0.0499813 0.00107821
1.1 -0.0499811 0.00107806
1.1125 -0.0499808 0.00107791
1.125 -0.0499806 0.00107776
1.1375 -0.0499803 0.00107754
1.15 -0.0499801 0.00107739
1.1625 -0.0499798 0.00107725
1.175 -0.0499796 0.0010771
1.1875 -0.0499793 0.00107695
1.2 -0.0499792 0.00107674
1.2125 -0.0499789 0.0010766
1.225 -0.0499786 0.00107645
1.2375 -0.0499784 0.0010763
1.25 -0.0499781 0.00107615
1.2625 -0.0499779 0.00107595
1.275 -0.0499776 0.0010758
1.2875 -0.0499773 0.00107566
1.3 -0.049977 0.00107551
1.3125 -0.0499767 0.00107537
1.325 -0.0499765 0.00107516
1.3375 -0.0499762 0.00107502
1.35 -0.0499759 0.00107487
1.3625 -0.0499756 0.00107473
1.375 -0.0499753 0.00107459
1.3875 -0.0499752 0.00107439
1.4 -0.0499749 0.00107425
1.4125 -0.0499746 0.00107411
1.425 -0.0499743 0.00107397
1.4375 -0.049974 0.00107383
1.45 -0.0499738 0.00107364
1.4625 -0.0499735 0.0010735
1.475 -0.0499732 0.00107336
1.4875 -0.0499729 0.00107323
1.5 -0.0499725 0.00107309
1.5125 -0.0499723 0.0010729
1.525 -0.049972 0.00107276
1.5375 -0.0499716 0.00107263
1.55 -0.0499713 0.0010725
1.5625 -0.049971 0.00107236
1.575 -0.0499707 0.00107217
1.5875 -0.0499704 0.00107204
1.6 -0.04997 0.00107191
1.6125 -0.0499697 0.00107178
1.625 -0.0499694 0.00107165
1.6375 -0.0499691 0.00107147
1.65 -0.0499688 0.00107134
1.6625 -0.0499684 0.00107122
1.675 -0.0499681 0.00107109
1.6875 -0.0499677 0.00107096
1.7 -0.0499675 0.00107079
1.7125 -0.0499672 0.00107067
1.725 -0.0499668 0.00107054
1.7375 -0.0499665 0.00107042
1.75 -0.0499661 0.0010703
1.7625 -0.0499659 0.00107013
1.775 -0.0499656 0.00107001
1.7875 -0.0499652 0.0010699
1.8 -0.0499648 0.00106978
1.8125 -0.0499645 0.00106966
1.825 -0.0499642 0.00106949
1.8375 -0.0499638 0.00106938
1.85 -0.0499634 0.00106927
1.8625 -0.049963 0.00106915
1.875 -0.0499627 0.00106904
1.8875 -0.0499625 0.00106888
1.9 -0.0499621 0.00106877
1.9125 -0.0499617 0.00106866
1.925 -0.0499613 0.00106855
1.9375 -0.0499609 0.00106844
1.95 -0.0499607 0.0010683
1.9625 -0.0499603 0.00106819
1.975 -0.0499599 0.00106809
1.9875 -0.0499595 0.00106798
2 -0.0499591 0.00106787
2.0125 -0.0499588 0.00106773
2.025 -0.0499584 0.00106763
2.0375 -0.049958 0.00106753
2.05 -0.0499576 0.00106743
2.0625 -0.0499572 0.00106733
2.075 -0.0499569 0.00106719
2.0875 -0.0499565 0.0010671
2.1 -0.049956 0.001067
2.1125 -0.0499556 0.00106691
2.125 -0.0499552 0.00106682
2.1375 -0.0499549 0.00106669
2.15 -0.0499545 0.0010666
2.1625 -0.0499541 0.00106651
2.175 -0.0499536 0.00106642
2.1875 -0.0499532 0.00106634
2.2 -0.049953 0.00106622
2.2125 -0.0499525 0.00106614
2.225 -0.0499521 0.00106605
2.2375 -0.0499517 0.00106597
2.25 -0.0499512 0.00106589
2.2625 -0.049951 0.00106577
2.275 -0.0499505 0.0010657
2.2875 -0.0499501 0.00106562
2.3 -0.0499496 0.00106554
2.3125 -0.0499492 0.00106547
2.325 -0.0499489 0.00106536
2.3375 -0.0499484 0.00106529
2.35 -0.049948 0.00106522
2.3625 -0.0499475 0.00106515
2.375 -0.0499471 0.00106508
2.3875 -0.0499469 0.00106498
2.4 -0.0499464 0.00106491
2.4125 -0.0499459 0.00106485
2.425 -0.0499455 0.00106478
2.4375 -0.049945 0.00106472
2.45 -0.0499448 0.00106463
2.4625 -0.0499443 0.00106457
2.475 -0.0499438 0.00106451
2.4875 -0.0499434 0.00106445
2.5 -0.0499429 0.00106439
2.5125 -0.0499426 0.0010643
2.525 -0.0499421 0.00106425
2.5375 -0.0499417 0.00106419
2.55 -0.0499412 0.00106414
2.5625 -0.0499407 0.00106408
2.575 -0.0499404 0.00106401
2.5875 -0.04994 0.00106396
2.6 -0.0499395 0.00106391
2.6125 -0.049939 0.00106386
2.625 -0.0499385 0.00106381
2.6375 -0.0499382 0.00106374
2.65 -0.0499378 0.0010637
2.6625 -0.0499373 0.00106365
2.675 -0.0499368 0.00106361
2.6875 -0.0499363 0.00106356
2.7 -0.0499361 0.00106351
2.7125 -0.0499356 0.00106347
2.725 -0.0499351 0.00106343
2.7375 -0.0499346 0.00106339
2.75 -0.0499341 0.00106335
2.7625 -0.0499339 0.0010633
2.775 -0.0499334 0.00106327
2.7875 -0.0499329 0.00106323
2.8 -0.0499324 0.0010632
2.8125 -0.0499319 0.00106317
2.825 -0.0499316 0.00106312
2.8375 -0.0499311 0.00106309
2.85 -0.0499306 0.00106306
2.8625 -0.0499302 0.00106303
2.875 -0.0499297 0.001063
2.8875 -0.0499294 0.00106297
2.9 -0.0499289 0.00106295
2.9125 -0.0499284 0.00106292
2.925 -0.0499279 0.0010629
2.9375 -0.0499274 0.00106287
2.95 -0.0499271 0.00106284
2.9625 -0.0499267 0.00106282
2.975 -0.0499262 0.0010628
2.9875 -0.0499257 0.00106278
3 -0.0499252 0.00106276
3.0125 -0.0499249 0.00106274
3.025 -0.0499244 0.00106273
3.0375 -0.0499239 0.00106271
3.05 -0.0499234 0.0010627
3.0625 -0.0499229 0.00106268
3.075 -0.0499226 0.00106267
3.0875 -0.0499221 0.00106266
3.1 -0.0499217 0.00106265
3.1125 -0.0499212 0.00106264
3.125 -0.0499207 0.00106263
3.1375 -0.0499204 0.00106262
3.15 -0.0499199 0.00106261
3.1625 -0.0499194 0.00106261
3.175 -0.0499189 0.0010626
3.1875 -0.0499184 0.0010626
3.2 -0.0499182 0.0010626
3.2125 -0.0499177 0.0010626
3.225 -0.0499172 0.0010626
3.2375 -0.0499167 0.0010626
3.25 -0.0499162 0.0010626
3.2625 -0.0499159 0.0010626
3.275 -0.0499154 0.00106261
3.2875 -0.049915 0.00106261
3.3 -0.0499145 0.00106262
3.3125 -0.049914 0.00106262
3.325 -0.0499137 0.00106263
3.3375 -0.0499132 0.00106264
3.35 -0.0499128 0.00106265
3.3625 -0.0499123 0.00106266
[...]
POINT_DATA 15805
 FIELD attributes 1
U 3 15805 float
20.0047 	-2.22656e-05 	-0.000192231 20.0046 	-1.99024e-05 	-0.00019773 20.0046 	-1.75392e-05 	-0.00020323 20.0045 	-1.5176e-05 	-0.000208729 20.0044 	-1.28128e-05 	-0.000214228 20.0044 	-1.04497e-05 	-0.000219727 20.0085 	-3.78633e-05 	-6.80645e-05 20.0085 	-3.78618e-05 	-6.80619e-05 20.0085 	-3.78603e-05 	-6.80593e-05 20.0085 	-3.78589e-05 	-6.80566e-05 20.0046 	0.000189939 	-0.00021004 20.0091 	1.46887e-05 	-8.21086e-05 20.0091 	1.46881e-05 	-8.21047e-05 20.0091 	1.46874e-05 	-8.21009e-05 20.0091 	1.46867e-05 	-8.20971e-05 20.0049 	0.000194129 	-0.000210869 20.0096 	4.11056e-05 	-9.79971e-05 20.0096 	4.11033e-05 	-9.79916e-05 20.0096 	4.1101e-05 	-9.79862e-05 20.0096 	4.10987e-05 	-9.79807e-05 20.0051 	3.55109e-05 	-0.000208917 20.0102 	5.37677e-05 	-0.000111352 20.0102 	5.37643e-05 	-0.000111345 20.0102 	5.37609e-05 	-0.000111338 20.0102 	5.37575e-05 	-0.000111331 20.0054 	0.000202234 	-0.000227108 20.0108 	6.17597e-05 	-0.000121767 20.0108 	6.17555e-05 	-0.000121758 20.0108 	6.17512e-05 	-0.00012175 20.0108 	6.17469e-05 	-0.000121742 20.0057 	0.000206048 	-0.000234711 20.0114 	6.98968e-05 	-0.000130236 20.0114 	6.98917e-05 	-0.000130226 20.0114 	6.98865e-05 	-0.000130217 20.0114 	6.98813e-05 	-0.000130207 20.0061 	4.28138e-05 	-0.000230919 20.0121 	7.80226e-05 	-0.000137841 20.0121 	7.80165e-05 	-0.00013783 20.0121 	7.80104e-05 	-0.000137819 20.0121 	7.80043e-05 	-0.000137808 20.0064 	4.41418e-05 	-0.000237615 20.0128 	8.40821e-05 	-0.000144177 20.0128 	8.40752e-05 	-0.000144166 20.0128 	8.40683e-05 	-0.000144154 20.0128 	8.40614e-05 	-0.000144142 20.0067 	0.000217777 	-0.00025496 20.0135 	9.15272e-05 	-0.000150519 20.0135 	9.15193e-05 	-0.000150506 20.0135 	9.15115e-05 	-0.000150493 20.0135 	9.15036e-05 	-0.00015048 20.0071 	0.000222041 	-0.00026144 20.0142 	0.000100021 	-0.000156866 20.0142 	0.000100012 	-0.000156852 20.0142 	0.000100003 	-0.000156838 20.0142 	9.99942e-05 	-0.000156824 20.0075 	0.00022685 	-0.000267997 20.015 	0.000108128 	-0.000163072 20.015 	0.000108118 	-0.000163057 20.015 	0.000108108 	-0.000163042 20.015 	0.000108097 	-0.000163026 20.0079 	5.20682e-05 	-0.000263962 20.0158 	0.000116583 	-0.000169621 20.0158 	0.000116572 	-0.000169605 20.0158 	0.000116561 	-0.000169588 20.0158 	0.000116549 	-0.000169572 20.0083 	5.44705e-05 	-0.00027045 20.0166 	0.000124499 	-0.000176301 20.0166 	0.000124487 	-0.000176284 20.0166 	0.000124474 	-0.000176266 20.0166 	0.000124462 	-0.000176248 20.0087 	0.00024184 	-0.000287594 20.0175 	0.000134273 	-0.000182056 20.0175 	0.000134259 	-0.000182037 20.0175 	0.000134245 	-0.000182018 20.0175 	0.000134232 	-0.000181999 20.0092 	6.06458e-05 	-0.000283089 20.0184 	0.000142965 	-0.000187058 20.0184 	0.00014295 	-0.000187038 20.0184 	0.000142935 	-0.000187018 20.0184 	0.000142919 	-0.000186998 20.0096 	6.39122e-05 	-0.000289169 20.0193 	0.000152011 	-0.000192872 20.0193 	0.000151994 	-0.00019285 20.0193 	0.000151977 	-0.000192829 20.0193 	0.00015196 	-0.000192808 20.01 	0.000257846 	-0.000305567 20.0202 	0.000162319 	-0.00019887 20.0202 	0.000162301 	-0.000198847 20.0202 	0.000162283 	-0.000198825 20.0202 	0.000162264 	-0.000198802 20.0105 	0.000263636 	-0.000311553 20.0211 	0.000172484 	-0.000204613 20.0211 	0.000172464 	-0.000204589 20.0211 	0.000172444 	-0.000204565 20.0211 	0.000172423 	-0.000204541 20.011 	0.000269559 	-0.000317289 20.0221 	0.000183292 	-0.000209978 20.0221 	0.000183269 	-0.000209953 20.0221 	0.000183247 	-0.000209927 20.0221 	0.000183225 	-0.000209902 20.0115 	8.07819e-05 	-0.000312557 20.0231 	0.000193374 	-0.000214716 20.0231 	0.000193351 	-0.000214689 20.0231 	0.000193327 	-0.000214663 20.0231 	0.000193303 	-0.000214637 20.012 	0.000280961 	-0.000327622 20.0241 	0.000205708 	-0.000219824 20.0241 	0.000205682 	-0.000219796 20.0241 	0.000205656 	-0.000219768 20.0241 	0.00020563 	-0.000219741 20.0125 	0.000287239 	-0.000332236 20.0252 	0.000218375 	-0.00022428 20.0252 	0.000218347 	-0.000224251 20.0252 	0.000218319 	-0.000224222 20.0252 	0.00021829 	-0.000224193 20.0131 	9.64602e-05 	-0.000326667 20.0262 	0.000231016 	-0.00022817 20.0262 	0.000230986 	-0.00022814 20.0262 	0.000230956 	-0.000228111 20.0262 	0.000230925 	-0.000228081 20.0136 	0.000102258 	-0.000330533 20.0273 	0.000243926 	-0.000231975 20.0273 	0.000243893 	-0.000231944 20.0273 	0.000243861 	-0.000231913 20.0273 	0.000243828 	-0.000231882 20.0141 	0.000305857 	-0.000343406 20.0284 	0.000258695 	-0.000234914 20.0284 	0.00025866 	-0.000234883 20.0284 	0.000258625 	-0.000234851 20.0284 	0.00025859 	-0.000234819 20.0147 	0.000312518 	-0.000345962 20.0295 	0.000272963 	-0.000237373 20.0295 	0.000272925 	-0.000237341 20.0295 	0.000272888 	-0.000237308 20.0295 	0.000272851 	-0.000237276 20.0153 	0.000318738 	-0.000348056 20.0306 	0.000286908 	-0.000239433 20.0306 	0.000286868 	-0.0002394 20.0306 	0.000286829 	-0.000239367 20.0306 	0.000286789 	-0.000239334 20.0158 	0.000130429 	-0.000340371 20.0317 	0.000300985 	-0.000241243 20.0317 	0.000300944 	-0.000241209 20.0317 	0.000300902 	-0.000241176 20.0317 	0.00030086 	-0.000241142 20.0164 	0.000137506 	-0.000341407 20.0329 	0.000314202 	-0.000242286 20.0329 	0.000314158 	-0.000242252 20.0329 	0.000314114 	-0.000242218 20.0329 	0.00031407 	-0.000242184 20.017 	0.000337561 	-0.000350833 20.034 	0.000332874 	-0.000243278 20.034 	0.000332828 	-0.000243243 20.034 	0.000332781 	-0.000243209 20.034 	0.000332734 	-0.000243175 20.0176 	0.000154593 	-0.000341617 20.0352 	0.000347731 	-0.000243342 20.0352 	0.000347682 	-0.000243308 20.0351 	0.000347633 	-0.000243274 20.0351 	0.000347584 	-0.000243239 20.0181 	0.000163572 	-0.000340625 20.0363 	0.000366564 	-0.000243064 20.0363 	0.000366512 	-0.00024303 20.0363 	0.000366461 	-0.000242996 20.0363 	0.00036641 	-0.000242962 20.0187 	0.000358478 	-0.000347499 20.0374 	0.000384604 	-0.000242092 20.0374 	0.000384551 	-0.000242058 20.0374 	0.000384497 	-0.000242024 20.0374 	0.000384443 	-0.00024199 20.0193 	0.000364916 	-0.000345015 20.0386 	0.000401147 	-0.000240417 20.0385 	0.000401091 	-0.000240384 20.0385 	0.000401035 	-0.00024035 20.0385 	0.000400979 	-0.000240317 20.0198 	0.000370848 	-0.000341852 20.0397 	0.0004175 	-0.000238429 20.0397 	0.000417443 	-0.000238396 20.0397 	0.000417385 	-0.000238363 20.0397 	0.000417327 	-0.00023833 20.0204 	0.000200552 	-0.000329753 20.0408 	0.000432209 	-0.000235856 20.0408 	0.00043215 	-0.000235824 20.0408 	0.000432091 	-0.000235791 20.0408 	0.000432032 	-0.000235759 20.021 	0.000382785 	-0.000333419 20.0419 	0.000452485 	-0.000232677 20.0419 	0.000452424 	-0.000232646 20.0419 	0.000452363 	-0.000232615 20.0419 	0.000452302 	-0.000232583 20.0215 	0.000389559 	-0.000328206 20.043 	0.000470191 	-0.000229311 20.043 	0.000470129 	-0.00022928 20.043 	0.000470066 	-0.00022925 20.043 	0.000470004 	-0.000229219 20.0221 	0.000230568 	-0.000314285 20.044 	0.000487018 	-0.000224908 20.044 	0.000486955 	-0.000224879 20.044 	0.000486891 	-0.000224849 20.044 	0.000486828 	-0.00022482 20.0226 	0.000241077 	-0.000307742 20.0451 	0.000507266 	-0.000220319 20.0451 	0.000507201 	-0.00022029 20.0451 	0.000507136 	-0.000220262 20.0451 	0.000507071 	-0.000220234 20.0231 	0.000408192 	-0.000308491 20.0461 	0.000525455 	-0.000214931 20.0461 	0.000525389 	-0.000214904 20.0461 	0.000525324 	-0.000214878 20.0461 	0.000525258 	-0.000214851 20.0237 	0.000413777 	-0.00030066 20.0471 	0.000542355 	-0.000209321 20.0471 	0.000542289 	-0.000209296 20.0471 	0.000542223 	-0.00020927 20.0471 	0.000542157 	-0.000209245 20.0242 	0.000418753 	-0.000292275 20.0481 	0.000558452 	-0.000203185 20.0481 	0.000558386 	-0.000203161 20.0481 	0.00055832 	-0.000203137 20.048 	0.000558254 	-0.000203113 20.0247 	0.000281371 	-0.000275669 20.049 	0.000573328 	-0.000197003 20.049 	0.000573262 	-0.00019698 20.049 	0.000573196 	-0.000196957 20.049 	0.00057313 	-0.000196935 20.0251 	0.000291458 	-0.000266319 20.0499 	0.000592144 	-0.000190289 20.0499 	0.000592078 	-0.000190268 20.0499 	0.000592013 	-0.000190247 20.0499 	0.000591947 	-0.000190226 20.0256 	0.000434128 	-0.000263902 20.0508 	0.000612653 	-0.000183418 20.0508 	0.000612588 	-0.000183399 20.0508 	0.000612522 	-0.000183379 20.0508 	0.000612457 	-0.000183359 20.026 	0.000312741 	-0.000246379 20.0516 	0.000628618 	-0.00017656 20.0516 	0.000628553 	-0.000176542 20.0516 	0.000628488 	-0.000176524 20.0516 	0.000628423 	-0.000176505 20.0265 	0.0003222 	-0.000235814 20.0524 	0.00064367 	-0.000168645 20.0524 	0.000643607 	-0.000168628 20.0524 	0.000643543 	-0.000168612 20.0524 	0.00064348 	-0.000168595 20.0269 	0.000446678 	-0.000232238 20.0532 	0.000659455 	-0.000160723 20.0532 	0.000659394 	-0.000160708 20.0532 	0.000659332 	-0.000160692 20.0532 	0.00065927 	-0.000160677 20.0273 	0.00045025 	-0.00022102 20.0539 	0.000674077 	-0.000150534 20.0539 	0.000674018 	-0.00015052 20.0539 	0.000673959 	-0.000150507 20.0539 	0.0006739 	-0.000150494 20.0276 	0.000453061 	-0.000209292 20.0546 	0.000686672 	-0.000140304 20.0546 	0.000686615 	-0.000140293 20.0546 	0.000686559 	-0.000140281 20.0546 	0.000686503 	-0.00014027 20.028 	0.000357072 	-0.00018961 20.0552 	0.00069771 	-0.000131469 20.0552 	0.000697656 	-0.000131459 20.0552 	0.000697603 	-0.000131449 20.0552 	0.000697549 	-0.000131439 20.0283 	0.000457672 	-0.000185086 20.0558 	0.000712633 	-0.000122766 20.0558 	0.000712581 	-0.000122757 20.0558 	0.00071253 	-0.000122749 20.0558 	0.000712479 	-0.00012274 20.0286 	0.000459963 	-0.000172589 20.0564 	0.000724208 	-0.000114202 20.0564 	0.00072416 	-0.000114194 20.0564 	0.000724112 	-0.000114186 20.0564 	0.000724063 	-0.000114179 20.0289 	0.000380561 	-0.000152069 20.0569 	0.000735382 	-0.000105588 20.0569 	0.000735337 	-0.000105582 20.0569 	0.000735291 	-0.000105575 20.0569 	0.000735246 	-0.000105569 20.0292 	0.000387817 	-0.000139222 20.0574 	0.000748668 	-9.71682e-05 20.0574 	0.000748625 	-9.71626e-05 20.0574 	0.000748583 	-9.71571e-05 20.0574 	0.00074854 	-9.71516e-05 20.0294 	0.00046457 	-0.000134303 20.0578 	0.000757809 	-8.88267e-05 20.0578 	0.000757769 	-8.88221e-05 20.0578 	0.00075773 	-8.88174e-05 20.0578 	0.000757691 	-8.88128e-05 20.0296 	0.000464921 	-0.000121459 20.0582 	0.000765678 	-8.01972e-05 20.0582 	0.000765642 	-8.01934e-05 20.0582 	0.000765606 	-8.01897e-05 20.0582 	0.00076557 	-8.01859e-05 20.0298 	0.000464914 	-0.000108525 20.0586 	0.000772566 	-7.15818e-05 20.0585 	0.000772534 	-7.15788e-05 20.0585 	0.000772502 	-7.15758e-05 20.0585 	0.000772469 	-7.15728e-05 20.03 	0.000410535 	-8.76762e-05 20.0589 	0.00077873 	-6.30527e-05 20.0588 	0.000778701 	-6.30504e-05 20.0588 	0.000778673 	-6.3048e-05 20.0588 	0.000778644 	-6.30457e-05 20.0302 	0.000414407 	-7.50188e-05 20.0591 	0.000783189 	-5.49827e-05 20.0591 	0.000783164 	-5.4981e-05 20.0591 	0.000783139 	-5.49792e-05 20.0591 	0.000783114 	-5.49774e-05 20.0303 	0.000461462 	-7.05933e-05 20.0593 	0.000786866 	-4.7477e-05 20.0593 	0.000786844 	-4.74757e-05 20.0593 	0.000786822 	-4.74743e-05 20.0593 	0.0007868 	-4.7473e-05 20.0304 	0.000419548 	-5.04112e-05 20.0595 	0.000789697 	-3.98792e-05 20.0595 	0.000789678 	-3.98783e-05 20.0595 	0.00078966 	-3.98773e-05 20.0595 	0.000789641 	-3.98764e-05 20.0305 	0.000456461 	-4.64413e-05 20.0596 	0.000791195 	-3.21506e-05 20.0596 	0.00079118 	-3.215e-05 20.0596 	0.000791165 	-3.21494e-05 20.0596 	0.00079115 	-3.21488e-05 20.0305 	0.000453319 	-3.46796e-05 20.0597 	0.000791489 	-2.42825e-05 20.0597 	0.000791478 	-2.42822e-05 20.0597 	0.000791467 	-2.42818e-05 20.0597 	0.000791455 	-2.42815e-05 20.0306 	0.000449823 	-2.32347e-05 20.0598 	0.000790444 	-1.64796e-05 20.0598 	0.000790436 	-1.64795e-05 20.0598 	0.000790428 	-1.64793e-05 20.0598 	0.000790421 	-1.64791e-05 20.0306 	0.000445753 	-1.19927e-05 20.0598 	0.000788155 	-9.0444e-06 20.0598 	0.000788151 	-9.04435e-06 20.0598 	0.000788147 	-9.0443e-06 20.0598 	0.000788143 	-9.04426e-06 20.0306 	0.000425556 	7.49021e-06 20.0597 	0.000784557 	-9.55513e-07 20.0597 	0.000784556 	-9.55512e-07 20.0597 	0.000784556 	-9.55512e-07 20.0597 	0.000784556 	-9.55511e-07 20.0306 	0.000435466 	9.6269e-06 20.0597 	0.000779852 	6.28685e-06 20.0597 	0.000779855 	6.28687e-06 20.0597 	0.000779858 	6.2869e-06 20.0597 	0.00077986 	6.28692e-06 20.0305 	0.00042932 	1.98778e-05 20.0596 	0.000773677 	1.27628e-05 20.0596 	0.000773683 	1.27629e-05 20.0596 	0.000773689 	1.2763e-05 20.0596 	0.000773695 	1.27631e-05 20.0305 	0.000421633 	3.82813e-05 20.0594 	0.000766967 	1.91918e-05 20.0594 	0.000766976 	1.9192e-05 20.0594 	0.000766984 	1.91922e-05 20.0594 	0.000766993 	1.91924e-05 20.0305 	0.00041839 	4.75879e-05 20.0592 	0.000756309 	2.47582e-05 20.0592 	0.00075632 	2.47586e-05 20.0592 	0.000756331 	2.4759e-05 20.0592 	0.000756342 	2.47593e-05 20.0303 	0.000408521 	4.77159e-05 20.059 	0.000746211 	3.06375e-05 20.059 	0.000746224 	3.06381e-05 20.059 	0.000746237 	3.06386e-05 20.059 	0.000746251 	3.06392e-05 20.0302 	0.000400128 	5.61096e-05 20.0588 	0.000736368 	3.63237e-05 20.0588 	0.000736384 	3.63244e-05 20.0588 	0.000736399 	3.63252e-05 20.0588 	0.000736415 	3.6326e-05 20.0301 	0.000391717 	6.39356e-05 20.0585 	0.000726091 	4.09911e-05 20.0585 	0.000726108 	4.09921e-05 20.0585 	0.000726125 	4.09931e-05 20.0585 	0.000726143 	4.0994e-05 20.03 	0.000397077 	8.04983e-05 20.0582 	0.000715274 	4.59945e-05 20.0582 	0.000715293 	4.59958e-05 20.0582 	0.000715313 	4.5997e-05 20.0582 	0.000715332 	4.59982e-05 20.0299 	0.000390493 	8.75207e-05 20.0579 	0.000700531 	5.01615e-05 20.0579 	0.000700552 	5.0163e-05 20.0579 	0.000700572 	5.01645e-05 20.0579 	0.000700593 	5.0166e-05 20.0297 	0.000362359 	8.43685e-05 20.0576 	0.000679457 	5.33141e-05 20.0576 	0.000679479 	5.33158e-05 20.0576 	0.0006795 	5.33174e-05 20.0576 	0.000679521 	5.33191e-05 20.0295 	0.000350786 	9.00133e-05 20.0572 	0.000664815 	5.67457e-05 20.0572 	0.000664837 	5.67476e-05 20.0572 	0.000664859 	5.67495e-05 20.0572 	0.000664882 	5.67513e-05 20.0294 	0.000362006 	0.000105351 20.0568 	0.000643711 	6.00172e-05 20.0568 	0.000643733 	6.00193e-05 20.0568 	0.000643756 	6.00214e-05 20.0568 	0.000643779 	6.00236e-05 20.0292 	0.000350898 	0.000110506 20.0564 	0.000625817 	6.27446e-05 20.0564 	0.00062584 	6.27469e-05 20.0564 	0.000625863 	6.27492e-05 20.0564 	0.000625886 	6.27515e-05 20.0289 	0.000312419 	0.000104586 20.056 	0.000593007 	6.54733e-05 20.056 	0.00059303 	6.54758e-05 20.056 	0.000593053 	6.54784e-05 20.056 	0.000593075 	6.54809e-05 20.0287 	0.000295536 	0.000108509 20.0555 	0.000569193 	6.79383e-05 20.0555 	0.000569216 	6.7941e-05 20.0555 	0.000569238 	6.79437e-05 20.0555 	0.000569261 	6.79464e-05 20.0285 	0.000310021 	0.000123687 20.0551 	0.000552454 	6.9987e-05 20.0551 	0.000552477 	6.99898e-05 20.0551 	0.0005525 	6.99927e-05 20.0551 	0.000552522 	6.99956e-05 20.0283 	0.000267705 	0.00011518 20.0546 	0.000517104 	7.20766e-05 20.0546 	0.000517126 	7.20797e-05 20.0546 	0.000517147 	7.20827e-05 20.0546 	0.000517169 	7.20857e-05 20.0281 	0.000251434 	0.000117821 20.0541 	0.000497128 	7.37412e-05 20.0541 	0.00049715 	7.37444e-05 20.0541 	0.000497171 	7.37476e-05 20.0541 	0.000497193 	7.37507e-05 20.0279 	0.000268765 	0.000132232 20.0536 	0.000477519 	7.51899e-05 20.0536 	0.00047754 	7.51932e-05 20.0536 	0.000477561 	7.51965e-05 20.0536 	0.000477582 	7.51998e-05 20.0276 	0.000256012 	0.000134372 20.0531 	0.000451992 	7.66656e-05 20.0531 	0.000452012 	7.6669e-05 20.0531 	0.000452032 	7.66724e-05 20.0531 	0.000452053 	7.66759e-05 20.0273 	0.000211456 	0.00012394 20.0526 	0.000424415 	7.71241e-05 20.0526 	0.000424434 	7.71275e-05 20.0526 	0.000424454 	7.7131e-05 20.0526 	0.000424473 	7.71345e-05 20.0271 	0.000196952 	0.000125223 20.0521 	0.000402595 	7.76536e-05 20.0521 	0.000402613 	7.76572e-05 20.0521 	0.000402631 	7.76607e-05 20.0521 	0.000402649 	7.76642e-05 20.0268 	0.000183631 	0.000126063 20.0516 	0.000377929 	7.72025e-05 20.0516 	0.000377946 	7.7206e-05 20.0516 	0.000377963 	7.72095e-05 20.0516 	0.00037798 	7.7213e-05 20.0266 	0.0001958 	0.000138895 20.0511 	0.000353173 	7.71015e-05 20.0511 	0.000353189 	7.7105e-05 20.0511 	0.000353205 	7.71085e-05 20.0511 	0.000353221 	7.71119e-05 20.0264 	0.000181063 	0.000139051 20.0506 	0.000326752 	7.60265e-05 20.0506 	0.000326767 	7.60299e-05 20.0506 	0.000326781 	7.60333e-05 20.0506 	0.000326796 	7.60366e-05 20.0261 	0.000138018 	0.000126342 20.0501 	0.000293867 	7.46891e-05 20.0501 	0.000293879 	7.46923e-05 20.0501 	0.000293892 	7.46956e-05 20.0501 	0.000293905 	7.46989e-05 20.0259 	0.000142754 	0.000138599 20.0495 	0.00026547 	7.40687e-05 20.0495 	0.000265481 	7.40719e-05 20.0495 	0.000265493 	7.40751e-05 20.0495 	0.000265504 	7.40783e-05 20.0256 	0.000121987 	0.000138311 20.049 	0.000217845 	7.32301e-05 20.049 	0.000217854 	7.32332e-05 20.049 	0.000217864 	7.32364e-05 20.049 	0.000217873 	7.32395e-05 20.0253 	9.70985e-05 	0.000137554 20.0485 	0.000186567 	7.05977e-05 20.0485 	0.000186575 	7.06006e-05 20.0485 	0.000186582 	7.06035e-05 20.0485 	0.00018659 	7.06064e-05 20.0251 	4.95076e-05 	0.000121936 20.048 	0.000102105 	7.07019e-05 20.048 	0.000102109 	7.07048e-05 20.048 	0.000102113 	7.07077e-05 20.048 	0.000102117 	7.07107e-05 20.0248 	1.94103e-05 	0.000120154 20.0475 	6.27927e-05 	6.98519e-05 20.0475 	6.27952e-05 	6.98547e-05 20.0475 	6.27978e-05 	6.98576e-05 20.0475 	6.28003e-05 	6.98604e-05 20.0246 	2.08969e-05 	0.000136275 20.047 	3.16299e-05 	6.88225e-05 20.047 	3.16311e-05 	6.88253e-05 20.047 	3.16324e-05 	6.88281e-05 20.047 	3.16337e-05 	6.88308e-05 20.0243 	-1.76969e-05 	0.000116463 20.0464 	-9.59046e-06 	6.74882e-05 20.0464 	-9.59084e-06 	6.74908e-05 20.0464 	-9.59122e-06 	6.74935e-05 20.0464 	-9.59159e-06 	6.74961e-05 20.0241 	-3.7063e-05 	0.00011453 20.0459 	-4.32495e-05 	6.64162e-05 20.0459 	-4.32511e-05 	6.64188e-05 20.0459 	-4.32528e-05 	6.64214e-05 20.0459 	-4.32545e-05 	6.6424e-05 20.0238 	-3.47912e-05 	0.00013177 20.0454 	-7.07326e-05 	6.45368e-05 20.0455 	-7.07353e-05 	6.45392e-05 20.0455 	-7.0738e-05 	6.45416e-05 20.0455 	-7.07406e-05 	6.45441e-05 20.0236 	-5.80681e-05 	0.000129972 20.045 	-0.000134218 	6.30959e-05 20.045 	-0.000134223 	6.30982e-05 20.045 	-0.000134228 	6.31005e-05 20.045 	-0.000134233 	6.31029e-05 20.0233 	-0.00010094 	0.000107643 20.0445 	-0.000173522 	6.11599e-05 20.0445 	-0.000173528 	6.11621e-05 20.0445 	-0.000173534 	6.11642e-05 20.0445 	-0.000173541 	6.11664e-05 20.0231 	-0.000121106 	0.00010539 20.044 	-0.000208732 	5.98719e-05 20.044 	-0.000208739 	5.9874e-05 20.044 	-0.000208747 	5.9876e-05 20.044 	-0.000208754 	5.98781e-05 20.0229 	-0.000138675 	0.000102937 20.0435 	-0.000240518 	5.69469e-05 20.0435 	-0.000240525 	5.69488e-05 20.0435 	-0.000240533 	5.69507e-05 20.0435 	-0.000240541 	5.69526e-05 20.0227 	-0.000148236 	0.000121053 20.0431 	-0.00027536 	5.48685e-05 20.0431 	-0.000275369 	5.48703e-05 20.0431 	-0.000275378 	5.4872e-05 20.0431 	-0.000275386 	5.48738e-05 20.0224 	-0.000169664 	0.000118349 20.0426 	-0.0003222 	5.19975e-05 20.0426 	-0.00032221 	5.1999e-05 20.0426 	-0.000322219 	5.20006e-05 20.0426 	-0.000322229 	5.20022e-05 20.0222 	-0.000204501 	9.48731e-05 20.0422 	-0.000396652 	5.13312e-05 20.0422 	-0.000396664 	5.13328e-05 20.0422 	-0.000396676 	5.13343e-05 20.0422 	-0.000396688 	5.13358e-05 20.022 	-0.000228023 	0.000113648 20.0417 	-0.000430535 	4.95118e-05 20.0417 	-0.000430548 	4.95132e-05 20.0417 	-0.00043056 	4.95147e-05 20.0417 	-0.000430573 	4.95161e-05 20.0218 	-0.000255411 	0.000111151 20.0413 	-0.000493654 	4.705e-05 20.0413 	-0.000493667 	4.70513e-05 20.0413 	-0.000493681 	4.70526e-05 20.0413 	-0.000493694 	4.70539e-05 20.0215 	-0.000283784 	8.68088e-05 20.0409 	-0.000539959 	4.35258e-05 20.0409 	-0.000539972 	4.35269e-05 20.0409 	-0.000539986 	4.3528e-05 20.0409 	-0.00054 	4.35291e-05 20.0213 	-0.000312532 	8.37273e-05 20.0405 	-0.000581213 	4.14704e-05 20.0405 	-0.000581227 	4.14714e-05 20.0405 	-0.000581241 	4.14724e-05 20.0405 	-0.000581255 	4.14734e-05 20.0211 	-0.000340143 	8.07589e-05 20.0401 	-0.000620105 	3.90572e-05 20.0401 	-0.000620119 	3.90581e-05 20.0401 	-0.000620133 	3.9059e-05 20.0401 	-0.000620148 	3.90599e-05 