# vtk DataFile Version 2.0
track0
ASCII
DATASET POLYDATA
POINTS 15805 float
-1.001 -0.05 0.0011
-1.0008 -0.05 0.0011
-1.0006 -0.05 0.0011
-1.0004 -0.05 0.00109999
-1.0002 -0.05 0.00109999
-1 -0.05 0.00109999
-0.9875 -0.05 0.00109985
-0.975 -0.05 0.00109981
-0.9625 -0.0500001 0.00109977
-0.95 -0.0500001 0.00109972
-0.9375 -0.0500001 0.00109968
-0.925 -0.05 0.00109955
-0.9125 -0.05 0.0010995
-0.9 -0.05 0.00109945
-0.8875 -0.05 0.0010994
-0.875 -0.0499999 0.00109935
-0.8625 -0.0499998 0.00109921
-0.85 -0.0499998 0.00109915
-0.8375 -0.0499998 0.00109909
-0.825 -0.0499997 0.00109903
-0.8125 -0.0499997 0.00109897
-0.8 -0.0499997 0.00109884
-0.7875 -0.0499997 0.00109877
-0.775 -0.0499996 0.0010987
-0.7625 -0.0499996 0.00109863
-0.75 -0.0499996 0.00109856
-0.7375 -0.0499994 0.00109842
-0.725 -0.0499994 0.00109834
-0.7125 -0.0499994 0.00109827
-0.7 -0.0499993 0.00109819
-0.6875 -0.0499993 0.00109811
-0.675 -0.0499992 0.00109797
-0.6625 -0.0499991 0.00109789
-0.65 -0.0499991 0.00109781
-0.6375 -0.049999 0.00109772
-0.625 -0.049999 0.00109764
-0.6125 -0.049999 0.0010975
-0.6 -0.0499989 0.00109741
-0.5875 -0.0499989 0.00109733
-0.575 -0.0499988 0.00109724
-0.5625 -0.0499988 0.00109715
-0.55 -0.0499987 0.00109701
-0.5375 -0.0499987 0.00109692
-0.525 -0.0499986 0.00109683
-0.5125 -0.0499986 0.00109674
-0.5 -0.0499985 0.00109665
-0.4875 -0.0499984 0.00109649
-0.475 -0.0499983 0.00109639
-0.4625 -0.0499983 0.0010963
-0.45 -0.0499982 0.0010962
-0.4375 -0.0499982 0.00109611
-0.425 -0.049998 0.00109595
-0.4125 -0.049998 0.00109585
-0.4 -0.0499979 0.00109575
-0.3875 -0.0499978 0.00109565
-0.375 -0.0499978 0.00109555
-0.3625 -0.0499976 0.00109539
-0.35 -0.0499976 0.00109529
-0.3375 -0.0499975 0.00109518
-0.325 -0.0499974 0.00109508
-0.3125 -0.0499974 0.00109498
-0.3 -0.0499973 0.00109482
-0.2875 -0.0499973 0.00109471
-0.275 -0.0499972 0.0010946
-0.2625 -0.0499971 0.0010945
-0.25 -0.049997 0.00109439
-0.2375 -0.049997 0.00109422
-0.225 -0.0499969 0.00109411
-0.2125 -0.0499968 0.001094
-0.2 -0.0499968 0.00109389
-0.1875 -0.0499967 0.00109378
-0.175 -0.0499965 0.0010936
-0.1625 -0.0499965 0.00109349
-0.15 -0.0499964 0.00109338
-0.1375 -0.0499963 0.00109326
-0.125 -0.0499962 0.00109315
-0.1125 -0.0499962 0.00109297
-0.1 -0.0499961 0.00109285
-0.0875 -0.049996 0.00109274
-0.075 -0.0499959 0.00109262
-0.0625 -0.0499958 0.0010925
-0.05 -0.0499958 0.00109232
-0.0375 -0.0499957 0.0010922
-0.025 -0.0499956 0.00109208
-0.0125 -0.0499955 0.00109196
3.21665e-12 -0.0499954 0.00109184
0.0125 -0.0499952 0.00109165
0.025 -0.0499951 0.00109153
0.0375 -0.049995 0.0010914
0.05 -0.0499949 0.00109128
0.0625 -0.0499948 0.00109115
0.075 -0.0499947 0.00109096
0.0875 -0.0499945 0.00109083
0.1 -0.0499944 0.0010907
0.1125 -0.0499943 0.00109058
0.125 -0.0499942 0.00109045
0.1375 -0.0499941 0.00109025
0.15 -0.0499939 0.00109012
0.1625 -0.0499938 0.00108999
0.175 -0.0499937 0.00108986
0.1875 -0.0499936 0.00108973
0.2 -0.0499935 0.00108953
0.2125 -0.0499934 0.0010894
0.225 -0.0499933 0.00108926
0.2375 -0.0499932 0.00108913
0.25 -0.0499931 0.00108899
0.2625 -0.0499929 0.00108879
0.275 -0.0499928 0.00108865
0.2875 -0.0499926 0.00108852
0.3 -0.0499925 0.00108838
0.3125 -0.0499924 0.00108824
0.325 -0.0499922 0.00108803
0.3375 -0.0499921 0.00108789
0.35 -0.0499919 0.00108775
0.3625 -0.0499918 0.00108761
0.375 -0.0499917 0.00108747
0.3875 -0.0499916 0.00108727
0.4 -0.0499914 0.00108713
0.4125 -0.0499913 0.00108699
0.425 -0.0499912 0.00108684
0.4375 -0.049991 0.0010867
0.45 -0.049991 0.00108649
0.4625 -0.0499908 0.00108635
0.475 -0.0499906 0.0010862
0.4875 -0.0499905 0.00108606
0.5 -0.0499903 0.00108591
0.5125 -0.0499902 0.0010857
0.525 -0.04999 0.00108555
0.5375 -0.0499898 0.00108541
0.55 -0.0499897 0.00108526
0.5625 -0.0499895 0.00108511
0.575 -0.0499893 0.0010849
0.5875 -0.0499891 0.00108475
0.6 -0.049989 0.0010846
0.6125 -0.0499888 0.00108445
0.625 -0.0499886 0.00108431
0.6375 -0.0499884 0.00108409
0.65 -0.0499883 0.00108394
0.6625 -0.0499881 0.00108379
0.675 -0.0499879 0.00108364
0.6875 -0.0499877 0.00108349
0.7 -0.0499876 0.00108328
0.7125 -0.0499874 0.00108313
0.725 -0.0499873 0.00108298
0.7375 -0.0499871 0.00108283
0.75 -0.0499869 0.00108268
0.7625 -0.0499868 0.00108246
0.775 -0.0499866 0.00108231
0.7875 -0.0499864 0.00108216
0.8 -0.0499862 0.00108201
0.8125 -0.049986 0.00108186
0.825 -0.0499858 0.00108164
0.8375 -0.0499856 0.00108149
0.85 -0.0499854 0.00108134
0.8625 -0.0499852 0.00108118
0.875 -0.049985 0.00108103
0.8875 -0.0499849 0.00108082
0.9 -0.0499847 0.00108067
0.9125 -0.0499844 0.00108052
0.925 -0.0499842 0.00108036
0.9375 -0.049984 0.00108021
0.95 -0.0499839 0.00108
0.9625 -0.0499837 0.00107985
0.975 -0.0499834 0.0010797
0.9875 -0.0499832 0.00107954
1 -0.049983 0.00107939
1.0125 -0.0499828 0.00107918
1.025 -0.0499825 0.00107902
1.0375 -0.0499823 0.00107887
1.05 -0.049982 0.00107872
1.0625 -0.0499818 0.00107857
1.075 -0.0499816 0.00107836
1.0875 -0.0499813 0.00107821
1.1 -0.0499811 0.00107806
1.1125 -0.0499808 0.00107791
1.125 -0.0499806 0.00107776
1.1375 -0.0499803 0.00107754
1.15 -0.0499801 0.00107739
1.1625 -0.0499798 0.00107725
1.175 -0.0499796 0.0010771
1.1875 -0.0499793 0.00107695
1.2 -0.0499792 0.00107674
1.2125 -0.0499789 0.0010766
1.225 -0.0499786 0.00107645
1.2375 -0.0499784 0.0010763
1.25 -0.0499781 0.00107615
1.2625 -0.0499779 0.00107595
1.275 -0.0499776 0.0010758
1.2875 -0.0499773 0.00107566
1.3 -0.049977 0.00107551
1.3125 -0.0499767 0.00107537
1.325 -0.0499765 0.00107516
1.3375 -0.0499762 0.00107502
1.35 -0.0499759 0.00107487
1.3625 -0.0499756 0.00107473
1.375 -0.0499753 0.00107459
1.3875 -0.0499752 0.00107439
1.4 -0.0499749 0.00107425
1.4125 -0.0499746 0.00107411
1.425 -0.0499743 0.00107397
1.4375 -0.049974 0.00107383
1.45 -0.0499738 0.00107364
1.4625 -0.0499735 0.0010735
1.475 -0.0499732 0.00107336
1.4875 -0.0499729 0.00107323
1.5 -0.0499725 0.00107309
1.5125 -0.0499723 0.0010729
1.525 -0.049972 0.00107276
1.5375 -0.0499716 0.00107263
1.55 -0.0499713 0.0010725
1.5625 -0.049971 0.00107236
1.575 -0.0499707 0.00107217
1.5875 -0.0499704 0.00107204
1.6 -0.04997 0.00107191
1.6125 -0.0499697 0.00107178
1.625 -0.0499694 0.00107165
1.6375 -0.0499691 0.00107147
1.65 -0.0499688 0.00107134
1.6625 -0.0499684 0.00107122
1.675 -0.0499681 0.00107109
1.6875 -0.0499677 0.00107096
1.7 -0.0499675 0.00107079
1.7125 -0.0499672 0.00107067
1.725 -0.0499668 0.00107054
1.7375 -0.0499665 0.00107042
1.75 -0.0499661 0.0010703
1.7625 -0.0499659 0.00107013
1.775 -0.0499656 0.00107001
1.7875 -0.0499652 0.0010699
1.8 -0.0499648 0.00106978
1.8125 -0.0499645 0.00106966
1.825 -0.0499642 0.00106949
1.8375 -0.0499638 0.00106938
1.85 -0.0499634 0.00106927
1.8625 -0.049963 0.00106915
1.875 -0.0499627 0.00106904
1.8875 -0.0499625 0.00106888
1.9 -0.0499621 0.00106877
1.9125 -0.0499617 0.00106866
1.925 -0.0499613 0.00106855
1.9375 -0.0499609 0.00106844
1.95 -0.0499607 0.0010683
1.9625 -0.0499603 0.00106819
1.975 -0.0499599 0.00106809
1.9875 -0.0499595 0.00106798
2 -0.0499591 0.00106787
2.0125 -0.0499588 0.00106773
2.025 -0.0499584 0.00106763
2.0375 -0.049958 0.00106753
2.05 -0.0499576 0.00106743
2.0625 -0.0499572 0.00106733
2.075 -0.0499569 0.00106719
2.0875 -0.0499565 0.0010671
2.1 -0.049956 0.001067
2.1125 -0.0499556 0.00106691
2.125 -0.0499552 0.00106682
2.1375 -0.0499549 0.00106669
2.15 -0.0499545 0.0010666
2.1625 -0.0499541 0.00106651
2.175 -0.0499536 0.00106642
2.1875 -0.0499532 0.00106634
2.2 -0.049953 0.00106622
2.2125 -0.0499525 0.00106614
2.225 -0.0499521 0.00106605
2.2375 -0.0499517 0.00106597
2.25 -0.0499512 0.00106589
2.2625 -0.049951 0.00106577
2.275 -0.0499505 0.0010657
2.2875 -0.0499501 0.00106562
2.3 -0.0499496 0.00106554
2.3125 -0.0499492 0.00106547
2.325 -0.0499489 0.00106536
2.3375 -0.0499484 0.00106529
2.35 -0.049948 0.00106522
2.3625 -0.0499475 0.00106515
2.375 -0.0499471 0.00106508
2.3875 -0.0499469 0.00106498
2.4 -0.0499464 0.00106491
2.4125 -0.0499459 0.00106485
2.425 -0.0499455 0.00106478
2.4375 -0.049945 0.00106472
2.45 -0.0499448 0.00106463
2.4625 -0.0499443 0.00106457
2.475 -0.0499438 0.00106451
2.4875 -0.0499434 0.00106445
2.5 -0.0499429 0.00106439
2.5125 -0.0499426 0.0010643
2.525 -0.0499421 0.00106425
2.5375 -0.0499417 0.00106419
2.55 -0.0499412 0.00106414
2.5625 -0.0499407 0.00106408
2.575 -0.0499404 0.00106401
2.5875 -0.04994 0.00106396
2.6 -0.0499395 0.00106391
2.6125 -0.049939 0.00106386
2.625 -0.0499385 0.00106381
2.6375 -0.0499382 0.00106374
2.65 -0.0499378 0.0010637
2.6625 -0.0499373 0.00106365
2.675 -0.0499368 0.00106361
2.6875 -0.0499363 0.00106356
2.7 -0.0499361 0.00106351
2.7125 -0.0499356 0.00106347
2.725 -0.0499351 0.00106343
2.7375 -0.0499346 0.00106339
2.75 -0.0499341 0.00106335
2.7625 -0.0499339 0.0010633
2.775 -0.0499334 0.00106327
2.7875 -0.0499329 0.00106323
2.8 -0.0499324 0.0010632
2.8125 -0.0499319 0.00106317
2.825 -0.0499316 0.00106312
2.8375 -0.0499311 0.00106309
2.85 -0.0499306 0.00106306
2.8625 -0.0499302 0.00106303
2.875 -0.0499297 0.001063
2.8875 -0.0499294 0.00106297
2.9 -0.0499289 0.00106295
2.9125 -0.0499284 0.00106292
2.925 -0.0499279 0.0010629
2.9375 -0.0499274 0.00106287
2.95 -0.0499271 0.00106284
2.9625 -0.0499267 0.00106282
2.975 -0.0499262 0.0010628
2.9875 -0.0499257 0.00106278
3 -0.0499252 0.00106276
3.0125 -0.0499249 0.00106274
3.025 -0.0499244 0.00106273
3.0375 -0.0499239 0.00106271
3.05 -0.0499234 0.0010627
3.0625 -0.0499229 0.00106268
3.075 -0.0499226 0.00106267
3.0875 -0.0499221 0.00106266
3.1 -0.0499217 0.00106265
3.1125 -0.0499212 0.00106264
3.125 -0.0499207 0.00106263
3.1375 -0.0499204 0.00106262
3.15 -0.0499199 0.00106261
3.1625 -0.0499194 0.00106261
3.175 -0.0499189 0.0010626
3.1875 -0.0499184 0.0010626
3.2 -0.0499182 0.0010626
3.2125 -0.0499177 0.0010626
3.225 -0.0499172 0.0010626
3.2375 -0.0499167 0.0010626
3.25 -0.0499162 0.0010626
3.2625 -0.0499159 0.0010626
3.275 -0.0499154 0.00106261
3.2875 -0.049915 0.00106261
3.3 -0.0499145 0.00106262
3.3125 -0.049914 0.00106262
3.325 -0.0499137 0.00106263
3.3375 -0.0499132 0.00106264
3.35 -0.0499128 0.00106265
3.3625 -0.0499123 0.00106266
[...]
POINT_DATA 15805
 FIELD attributes 2
p 1 15805 float
3.95401 3.95368 3.95336 3.95304 3.95272 3.9524 3.93393 3.91557 3.8972 3.87883 3.85855 3.83739 3.81605 3.7947 3.77336 3.75279 3.73232 3.71196 3.69161 3.67125 3.65162 3.63141 3.61088 3.59034 3.56981 3.54916 3.52768 3.506 3.48431 3.46262 3.44076 3.41808 3.3952 3.37232 3.34944 3.32637 3.3027 3.27886 3.25502 3.23118 3.20716 3.18262 3.15792 3.13322 3.10852 3.08364 3.05826 3.0327 3.00714 2.98159 2.95583 2.92956 2.9031 2.87664 2.85018 2.82353 2.79631 2.76889 2.74146 2.71404 2.68642 2.6582 2.62976 2.60133 2.5729 2.54426 2.515 2.48553 2.45607 2.4266 2.39692 2.36661 2.33608 2.30555 2.27502 2.24427 2.21287 2.18125 2.14962 2.118 2.08616 2.05367 2.02097 1.98827 1.95557 1.92265 1.8891 1.85534 1.82158 1.78783 1.75385 1.71928 1.6845 1.64972 1.61494 1.57994 1.54439 1.50865 1.4729 1.43716 1.4012 1.36474 1.3281 1.29147 1.25483 1.218 1.18072 1.14325 1.10579 1.06833 1.03066 0.992586 0.954357 0.916128 0.877899 0.839497 0.800727 0.761805 0.722884 0.683962 0.644865 0.605445 0.565898 0.52635 0.486803 0.447104 0.407112 0.366983 0.326853 0.286724 0.24644 0.205885 0.165203 0.124522 0.0838404 0.0430201 0.00195798 -0.0392253 -0.0804085 -0.121592 -0.162906 -0.204416 -0.24603 -0.287643 -0.329256 -0.370983 -0.412846 -0.454805 -0.496763 -0.538722 -0.58079 -0.622938 -0.665169 -0.707399 -0.74963 -0.791956 -0.834315 -0.876752 -0.919189 -0.961626 -1.00415 -1.04665 -1.08921 -1.13176 -1.17432 -1.21695 -1.25949 -1.3021 -1.3447 -1.3873 -1.42997 -1.47251 -1.51511 -1.5577 -1.60029 -1.64293 -1.68539 -1.72787 -1.77036 -1.81284 -1.85536 -1.8976 -1.93985 -1.9821 -2.02434 -2.0666 -2.10849 -2.15037 -2.19225 -2.23413 -2.27602 -2.31745 -2.35885 -2.40026 -2.44166 -2.48304 -2.52387 -2.56466 -2.60544 -2.64622 -2.68697 -2.72709 -2.76714 -2.8072 -2.84726 -2.88727 -2.92661 -2.96588 -3.00515 -3.04442 -3.08363 -3.12213 -3.16056 -3.19898 -3.23741 -3.27577 -3.31337 -3.35088 -3.3884 -3.42591 -3.46332 -3.49992 -3.5364 -3.57288 -3.60936 -3.64573 -3.6812 -3.71652 -3.75185 -3.78717 -3.82237 -3.85659 -3.89068 -3.92477 -3.95885 -3.9928 -4.0258 -4.05866 -4.09152 -4.12438 -4.15709 -4.18883 -4.22042 -4.252 -4.28359 -4.31502 -4.34539 -4.37558 -4.40578 -4.43598 -4.46599 -4.49484 -4.52351 -4.55218 -4.58086 -4.60933 -4.63662 -4.66375 -4.69087 -4.718 -4.74492 -4.77076 -4.79643 -4.82211 -4.84778 -4.87328 -4.89767 -4.92187 -4.94607 -4.97027 -4.99428 -5.0171 -5.03974 -5.06237 -5.085 -5.10743 -5.12862 -5.1496 -5.17058 -5.19155 -5.2123 -5.23179 -5.25108 -5.27037 -5.28965 -5.30872 -5.32655 -5.34418 -5.3618 -5.37942 -5.39682 -5.413 -5.42899 -5.44499 -5.46098 -5.47676 -5.49134 -5.50571 -5.52009 -5.53446 -5.54859 -5.5615 -5.57422 -5.58693 -5.59965 -5.61213 -5.62337 -5.63437 -5.64538 -5.65638 -5.66715 -5.67669 -5.68601 -5.69532 -5.70464 -5.71373 -5.72165 -5.72935 -5.73705 -5.74475 -5.75219 -5.75849 -5.76459 -5.7707 -5.7768 -5.78266 -5.78741 -5.79193 -5.79646 -5.80099 -5.80524 -5.80841 -5.81142 -5.81443 -5.81744 -5.82022 -5.82195 -5.82346 -5.82498 -5.82649 -5.82772 -5.82795 -5.82797 -5.82799 -5.828 -5.82779 -5.82657 -5.82514 -5.82372 -5.82229 -5.82062 -5.81798 -5.81515 -5.81233 -5.8095 -5.80645 -5.80246 -5.79826 -5.79405 -5.78985 -5.78543 -5.78008 -5.77454 -5.76899 -5.76344 -5.75769 -5.75106 -5.74423 -5.7374 -5.73057 -5.72355 -5.71569 -5.70765 -5.69961 -5.69157 -5.68335 -5.67436 -5.66519 -5.65602 -5.64685 -5.63748 -5.62739 -5.61715 -5.60691 -5.59667 -5.58625 -5.57516 -5.56391 -5.55266 -5.5414 -5.52998 -5.51792 -5.50574 -5.49355 -5.48136 -5.46902 -5.4561 -5.44304 -5.42998 -5.41692 -5.4037 -5.38996 -5.37609 -5.36223 -5.34836 -5.33436 -5.31986 -5.30522 -5.29059 -5.27595 -5.26117 -5.24595 -5.23062 -5.21529 -5.19996 -5.18452 -5.16869 -5.15277 -5.13684 -5.12091 -5.10487 -5.08845 -5.07193 -5.0554 -5.03888 -5.02225 -5.00526 -4.98819 -4.97112 -4.95405 -4.93691 -4.91946 -4.90195 -4.88444 -4.86693 -4.84936 -4.83157 -4.81373 -4.7959 -4.77807 -4.76018 -4.74214 -4.72407 -4.706 -4.68794 -4.66983 -4.65158 -4.63329 -4.615 -4.59671 -4.57836 -4.55989 -4.54139 -4.52289 -4.50439 -4.48584 -4.46724 -4.44859 -4.42993 -4.41128 -4.39255 -4.37384 -4.3551 -4.33637 -4.31764 -4.29886 -4.28016 -4.26142 -4.24268 -4.22394 -4.20517 -4.18651 -4.16781 -4.14912 -4.13042 -4.11168 -4.09306 -4.0744 -4.05575 -4.03709 -4.01842 -3.99992 -3.98135 -3.96278 -3.94422 -3.92563 -3.90722 -3.88877 -3.87031 -3.85185 -3.83341 -3.8151 -3.79672 -3.77834 -3.75996 -3.74156 -3.72327 -3.70495 -3.68663 -3.66831 -3.64995 -3.63169 -3.61345 -3.59521 -3.57697 -3.55871 -3.54062 -3.52252 -3.50442 -3.48632 -3.46822 -3.45025 -3.43227 -3.4143 -3.39632 -3.37833 -3.36049 -3.34265 -3.32482 -3.30698 -3.28914 -3.27153 -3.25396 -3.23638 -3.2188 -3.20125 -3.18396 -3.16669 -3.14942 -3.13215 -3.11493 -3.09795 -3.08097 -3.06399 -3.04701 -3.03006 -3.01338 -2.99672 -2.98006 -2.9634 -2.94676 -2.93044 -2.91414 -2.89784 -2.88154 -2.86527 -2.84935 -2.83348 -2.81761 -2.80174 -2.78592 -2.77048 -2.75508 -2.73967 -2.72426 -2.7089 -2.69389 -2.6789 -2.66392 -2.64894 -2.63401 -2.61943 -2.60488 -2.59032 -2.57577 -2.56126 -2.54704 -2.53282 -2.51861 -2.5044 -2.49021 -2.4762 -2.46219 -2.44818 -2.43417 -2.42017 -2.40634 -2.39254 -2.37873 -2.36493 -2.35116 -2.3376 -2.32409 -2.31058 -2.29707 -2.28361 -2.27039 -2.25723 -2.24407 -2.2309 -2.21782 -2.20493 -2.19207 -2.17922 -2.16636 -2.15355 -2.14091 -2.12832 -2.11572 -2.10313 -2.09058 -2.07821 -2.06591 -2.0536 -2.04129 -2.02903 -2.01696 -2.00492 -1.99288 -1.98083 -1.96882 -1.95698 -1.94516 -1.93333 -1.9215 -1.9097 -1.8981 -1.88653 -1.87496 -1.86339 -1.85186 -1.84057 -1.82931 -1.81805 -1.8068 -1.79557 -1.78465 -1.77377 -1.7629 -1.75203 -1.7412 -1.73071 -1.72027 -1.70983 -1.6994 -1.68901 -1.67893 -1.66888 -1.65884 -1.6488 -1.63879 -1.62905 -1.61935 -1.60966 -1.59996 -1.5903 -1.58086 -1.57145 -1.56204 -1.55263 -1.54326 -1.53405 -1.52484 -1.51562 -1.5064 -1.4972 -1.48814 -1.4791 -1.47006 -1.46101 -1.452 -1.44313 -1.43431 -1.42549 -1.41667 -1.40789 -1.39927 -1.3907 -1.38214 -1.37357 -1.36501 -1.3566 -1.34825 -1.33989 -1.33153 -1.3232 -1.31497 -1.30678 -1.2986 -1.29041 -1.28225 -1.27419 -1.2662 -1.25821 -1.25022 -1.24226 -1.23442 -1.22663 -1.21883 -1.21103 -1.20323 -1.19553 -1.1879 -1.18026 -1.17262 -1.165 -1.15749 -1.15003 -1.14257 -1.1351 -1.12766 -1.12036 -1.11313 -1.1059 -1.09868 -1.09148 -1.08452 -1.07762 -1.07072 -1.06381 -1.05691 -1.05038 -1.04397 -1.03755 -1.03114 -1.02476 -1.01923 -1.01389 -1.00856 -1.00322 -0.99797 -0.992185 -0.986671 -0.981157 -0.975642 -0.969353 -0.954606 -0.939066 -0.923124 -0.909057 -0.895274 -0.883962 -0.872548 -0.861135 -0.85094 -0.840773 -0.819394 -0.79832 -0.777246 -0.754634 -0.734062 -0.715675 -0.696877 -0.678077 -0.659276 -0.640626 -0.622688 -0.604756 -0.586824 -0.568893 -0.553329 -0.521423 -0.489852 -0.458281 -0.426711 -0.396238 -0.372687 -0.349238 -0.325789 -0.30234 -0.281166 -0.251725 -0.222561 -0.193396 -0.164232 -0.133215 -0.118242 -0.10304 -0.0878378 -0.0726356 -0.05574 -0.0470386 -0.0380395 -0.0290404 -0.0200413 -0.00930626 -0.00628429 -0.00293138 0.000421529 0.00377444 0.00880363 0.00736815 0.00616233 0.00495493 0.00374596 0.00476954
3.94061 3.94024 3.93987 3.93951 3.93914 3.93877 3.92357 3.90611 3.89066 3.87563 3.85607 3.83442 3.81434 3.79406 3.7729 3.75379 3.73329 3.71292 3.69288 3.6729 3.65371 3.63313 3.61251 3.5919 3.57131 3.55083 3.52913 3.5074 3.48561 3.46381 3.44203 3.41898 3.39606 3.37315 3.35024 3.32748 3.30339 3.27953 3.25569 3.23184 3.20824 3.18326 3.15855 3.13385 3.10914 3.08468 3.05884 3.03327 3.0077 2.98213 2.95683 2.93011 2.90365 2.87719 2.85072 2.8245 2.79688 2.76946 2.74205 2.71463 2.68742 2.65879 2.63037 2.60194 2.57351 2.54527 2.51561 2.48614 2.45667 2.4272 2.39791 2.36722 2.33667 2.30612 2.27559 2.24521 2.21342 2.1818 2.15015 2.11851 2.08702 2.05415 2.02141 1.98868 1.95598 1.92341 1.88947 1.85571 1.82191 1.7881 1.75444 1.71947 1.68463 1.6498 1.61501 1.58035 1.54439 1.50863 1.47284 1.43703 1.40142 1.36455 1.32786 1.29118 1.25453 1.21804 1.18033 1.14286 1.10535 1.06783 1.03052 0.992032 0.953742 0.915464 0.877228 0.83918 0.799964 0.76103 0.722056 0.683073 0.644345 0.604494 0.564879 0.525279 0.485725 0.446392 0.405965 0.365824 0.32564 0.285444 0.24551 0.204559 0.163799 0.123056 0.0823679 0.04187 0.00040811 -0.040788 -0.0820358 -0.123297 -0.164305 -0.206195 -0.247893 -0.289572 -0.331193 -0.372626 -0.414874 -0.456846 -0.498873 -0.540913 -0.582696 -0.625192 -0.667516 -0.709819 -0.752057 -0.794127 -0.836827 -0.879278 -0.921786 -0.96431 -1.0066 -1.04941 -1.09206 -1.13468 -1.17724 -1.21964 -1.26248 -1.30509 -1.34776 -1.39045 -1.43293 -1.47572 -1.51841 -1.56108 -1.60368 -1.64617 -1.68887 -1.73137 -1.77393 -1.81651 -1.85889 -1.90137 -1.94371 -1.98602 -2.02827 -2.0704 -2.11251 -2.1544 -2.19635 -2.23831 -2.28007 -2.3217 -2.36319 -2.40465 -2.44606 -2.48732 -2.52838 -2.56917 -2.61001 -2.65086 -2.69147 -2.73175 -2.77188 -2.81198 -2.85204 -2.89196 -2.93144 -2.97072 -3.01004 -3.04937 -3.0885 -3.12709 -3.16559 -3.20407 -3.24249 -3.2808 -3.31851 -3.35603 -3.39358 -3.43115 -3.46852 -3.5052 -3.54174 -3.57826 -3.61474 -3.65107 -3.68666 -3.722 -3.75736 -3.79273 -3.82787 -3.86215 -3.89629 -3.93041 -3.9645 -3.99841 -4.0314 -4.06426 -4.09715 -4.13003 -4.16277 -4.19455 -4.22615 -4.25774 -4.28933 -4.32073 -4.35122 -4.38144 -4.41165 -4.44185 -4.47177 -4.50087 -4.5296 -4.55829 -4.58695 -4.6152 -4.64251 -4.66963 -4.69678 -4.72395 -4.7509 -4.77662 -4.80234 -4.82804 -4.8537 -4.87934 -4.90356 -4.92775 -4.95196 -4.97618 -5.00038 -5.023 -5.04564 -5.06828 -5.0909 -5.11352 -5.1345 -5.15546 -5.17644 -5.19741 -5.21838 -5.23761 -5.25688 -5.27615 -5.29543 -5.31474 -5.33225 -5.34986 -5.36747 -5.38508 -5.40277 -5.41862 -5.43459 -5.45056 -5.46655 -5.4826 -5.49683 -5.51119 -5.52553 -5.53987 -5.55432 -5.56691 -5.57957 -5.59225 -5.60495 -5.61769 -5.6286 -5.63959 -5.65056 -5.66152 -5.67257 -5.68175 -5.69102 -5.7003 -5.70961 -5.71898 -5.72657 -5.73426 -5.74193 -5.74959 -5.75733 -5.76336 -5.7694 -5.77547 -5.78156 -5.78763 -5.79209 -5.7966 -5.80108 -5.80554 -5.81002 -5.81295 -5.81591 -5.81887 -5.82186 -5.82482 -5.82627 -5.82777 -5.82923 -5.83069 -5.83212 -5.8321 -5.83206 -5.83203 -5.83204 -5.83202 -5.83054 -5.8291 -5.82762 -5.82612 -5.82464 -5.82177 -5.81886 -5.81598 -5.81314 -5.81027 -5.80603 -5.80181 -5.79755 -5.79326 -5.78898 -5.78341 -5.77778 -5.77217 -5.7666 -5.76099 -5.75414 -5.7473 -5.74041 -5.7335 -5.72661 -5.71853 -5.71042 -5.70233 -5.69428 -5.68619 -5.67695 -5.66777 -5.65854 -5.64931 -5.64009 -5.6298 -5.61947 -5.60917 -5.59891 -5.58863 -5.5773 -5.56603 -5.55473 -5.5434 -5.53212 -5.51986 -5.50762 -5.49539 -5.4832 -5.47099 -5.45787 -5.4448 -5.4317 -5.41859 -5.4055 -5.39158 -5.37764 -5.36372 -5.34984 -5.33596 -5.32127 -5.30662 -5.29192 -5.2772 -5.2625 -5.2471 -5.23169 -5.2163 -5.20096 -5.18563 -5.16961 -5.15366 -5.13768 -5.12168 -5.10574 -5.08918 -5.07259 -5.05601 -5.03948 -5.02291 -5.0058 -4.98872 -4.9716 -4.95447 -4.93741 -4.91981 -4.90224 -4.88469 -4.86717 -4.84966 -4.83172 -4.81387 -4.796 -4.77813 -4.76035 -4.74216 -4.72402 -4.70591 -4.68784 -4.6698 -4.65146 -4.63316 -4.61482 -4.59648 -4.5782 -4.55965 -4.5411 -4.52257 -4.50406 -4.48551 -4.46683 -4.44817 -4.42949 -4.41079 -4.39209 -4.3733 -4.35452 -4.33576 -4.31701 -4.29826 -4.27947 -4.26073 -4.24196 -4.22317 -4.20443 -4.18571 -4.16698 -4.14826 -4.12956 -4.11084 -4.09219 -4.07353 -4.05486 -4.03618 -4.01749 -3.99891 -3.98032 -3.96173 -3.94316 -3.92464 -3.90619 -3.88773 -3.86924 -3.85073 -3.83224 -3.81394 -3.79554 -3.77714 -3.75876 -3.74035 -3.72209 -3.70377 -3.68544 -3.6671 -3.64866 -3.63043 -3.61218 -3.59392 -3.57567 -3.55743 -3.53929 -3.52118 -3.50306 -3.48494 -3.46681 -3.4489 -3.43091 -3.41291 -3.39493 -3.3769 -3.35904 -3.3412 -3.32335 -3.3055 -3.28764 -3.27 -3.25241 -3.23481 -3.21724 -3.19973 -3.1824 -3.16512 -3.14784 -3.13056 -3.11335 -3.09636 -3.07937 -3.06238 -3.0454 -3.02843 -3.01174 -2.99508 -2.97842 -2.96176 -2.94513 -2.92878 -2.91247 -2.89618 -2.87988 -2.86363 -2.84766 -2.83178 -2.8159 -2.80003 -2.78426 -2.76878 -2.75337 -2.73796 -2.72256 -2.70725 -2.69222 -2.67723 -2.66225 -2.64729 -2.63237 -2.61774 -2.60318 -2.58863 -2.57409 -2.55964 -2.54546 -2.53125 -2.51704 -2.50281 -2.48855 -2.47459 -2.46058 -2.44656 -2.43254 -2.41849 -2.40465 -2.39084 -2.37704 -2.36325 -2.34946 -2.33582 -2.32231 -2.30881 -2.29532 -2.28198 -2.26865 -2.25547 -2.24232 -2.22918 -2.21617 -2.20326 -2.1904 -2.17755 -2.16471 -2.15198 -2.13931 -2.12671 -2.11412 -2.10153 -2.08897 -2.07663 -2.06433 -2.05203 -2.03973 -2.02752 -2.01547 -2.00343 -1.99139 -1.97935 -1.9673 -1.95552 -1.9437 -1.93186 -1.92004 -1.90818 -1.89662 -1.88505 -1.87349 -1.86192 -1.85036 -1.83909 -1.82785 -1.8166 -1.80534 -1.7941 -1.78313 -1.77225 -1.76139 -1.75054 -1.73976 -1.72924 -1.71881 -1.7084 -1.69798 -1.68765 -1.67757 -1.66753 -1.65751 -1.6475 -1.63752 -1.62777 -1.61808 -1.6084 -1.59872 -1.5891 -1.57966 -1.57026 -1.56084 -1.55143 -1.54205 -1.53288 -1.52366 -1.51443 -1.50521 -1.49597 -1.48694 -1.4779 -1.46888 -1.45986 -1.45079 -1.44196 -1.43318 -1.42439 -1.41558 -1.40681 -1.39816 -1.38959 -1.38104 -1.3725 -1.36395 -1.3556 -1.34724 -1.33888 -1.33053 -1.32219 -1.31394 -1.30576 -1.29756 -1.28937 -1.28117 -1.27316 -1.26517 -1.25718 -1.2492 -1.24124 -1.23341 -1.22561 -1.2178 -1.20999 -1.20215 -1.19451 -1.18685 -1.1792 -1.17156 -1.16387 -1.1564 -1.14894 -1.14147 -1.134 -1.1265 -1.11922 -1.11197 -1.10473 -1.09749 -1.09024 -1.0832 -1.07627 -1.06929 -1.06228 -1.05529 -1.04869 -1.04192 -1.03523 -1.02873 -1.02204 -1.0158 -1.01011 -1.00375 -0.997145 -0.991043 -0.985591 -0.980273 -0.974885 -0.969304 -0.962712 -0.944092 -0.929373 -0.9143 -0.901371 -0.892479 -0.881962 -0.870996 -0.860041 -0.850544 -0.841626 -0.821177 -0.802839 -0.784501 -0.765076 -0.745831 -0.743517 -0.741203 -0.738889 -0.736608 -0.734387 -0.715435 -0.696191 -0.676931 -0.657672 -0.640548 -0.622544 -0.604528 -0.586499 -0.568492 -0.552939 -0.518135 -0.486103 -0.454327 -0.422763 -0.394861 -0.370176 -0.346738 -0.323213 -0.299426 -0.279755 -0.247929 -0.218785 -0.189641 -0.160536 -0.131296 -0.118873 -0.103694 -0.0885158 -0.0733878 -0.0541786 -0.049323 -0.0403467 -0.0313703 -0.022394 -0.00852454 -0.0100696 -0.00673805 -0.00340648 -7.49294e-05 0.00856361 0.00384712 0.00262331 0.00139352 0.000157738 0.00369333