# vtk DataFile Version 2.0
track0
ASCII
DATASET POLYDATA
POINTS 15780 float
-1.001 -0.05 0.0011
-1.0008 -0.05 0.0011
-1.0006 -0.05 0.0011
-1.0004 -0.05 0.0011
-1.0002 -0.05 0.0011
-1 -0.05 0.0011
-0.9875 -0.05 0.0011
-0.975 -0.05 0.0011
-0.9625 -0.05 0.0011
-0.95 -0.05 0.0011
-0.9375 -0.05 0.00109999
-0.925 -0.05 0.00109999
-0.9125 -0.05 0.00109999
-0.9 -0.05 0.00109999
-0.8875 -0.05 0.00109999
-0.875 -0.05 0.00109999
-0.8625 -0.05 0.00109999
-0.85 -0.05 0.00109999
-0.8375 -0.05 0.00109998
-0.825 -0.0500001 0.00109998
-0.8125 -0.0500001 0.00109998
-0.8 -0.0500001 0.00109998
-0.7875 -0.0500001 0.00109998
-0.775 -0.0500001 0.00109998
-0.7625 -0.0500001 0.00109998
-0.75 -0.0500001 0.00109998
-0.7375 -0.0500001 0.00109997
-0.725 -0.0500001 0.00109997
-0.7125 -0.0500001 0.00109997
-0.7 -0.0500001 0.00109997
-0.6875 -0.0500001 0.00109997
-0.675 -0.0500001 0.00109997
-0.6625 -0.0500001 0.00109997
-0.65 -0.0500001 0.00109996
-0.6375 -0.0500001 0.00109996
-0.625 -0.0500001 0.00109996
-0.6125 -0.0500001 0.00109996
-0.6 -0.0500001 0.00109996
-0.5875 -0.0500001 0.00109996
-0.575 -0.0500001 0.00109996
-0.5625 -0.0500001 0.00109996
-0.55 -0.0500001 0.00109995
-0.5375 -0.0500001 0.00109995
-0.525 -0.0500001 0.00109995
-0.5125 -0.0500001 0.00109995
-0.5 -0.0500001 0.00109995
-0.4875 -0.0500001 0.00109995
-0.475 -0.0500001 0.00109995
-0.4625 -0.0500001 0.00109994
-0.45 -0.0500002 0.00109994
-0.4375 -0.0500002 0.00109994
-0.425 -0.0500002 0.00109994
-0.4125 -0.0500002 0.00109994
-0.4 -0.0500002 0.00109994
-0.3875 -0.0500002 0.00109994
-0.375 -0.0500002 0.00109994
-0.3625 -0.0500002 0.00109993
-0.35 -0.0500002 0.00109993
-0.3375 -0.0500002 0.00109993
-0.325 -0.0500002 0.00109993
-0.3125 -0.0500002 0.00109993
-0.3 -0.0500002 0.00109993
-0.2875 -0.0500002 0.00109993
-0.275 -0.0500002 0.00109993
-0.2625 -0.0500002 0.00109992
-0.25 -0.0500002 0.00109992
-0.2375 -0.0500002 0.00109992
-0.225 -0.0500002 0.00109992
-0.2125 -0.0500002 0.00109992
-0.2 -0.0500002 0.00109992
-0.1875 -0.0500002 0.00109992
-0.175 -0.0500002 0.00109992
-0.1625 -0.0500002 0.00109991
-0.15 -0.0500002 0.00109991
-0.1375 -0.0500002 0.00109991
-0.125 -0.0500002 0.00109991
-0.1125 -0.0500002 0.00109991
-0.1 -0.0500002 0.00109991
-0.0875 -0.0500002 0.00109991
-0.075 -0.0500002 0.00109991
-0.0625 -0.0500002 0.00109991
-0.05 -0.0500003 0.00109991
-0.0375 -0.0500003 0.0010999
-0.025 -0.0500003 0.0010999
-0.0125 -0.0500003 0.0010999
2.10607e-13 -0.0500003 0.0010999
0.0125 -0.0500003 0.0010999
0.025 -0.0500003 0.0010999
0.0375 -0.0500003 0.0010999
0.05 -0.0500003 0.0010999
0.0625 -0.0500003 0.0010999
0.075 -0.0500003 0.0010999
0.0875 -0.0500003 0.0010999
0.1 -0.0500003 0.00109989
0.1125 -0.0500003 0.00109989
0.125 -0.0500003 0.00109989
0.1375 -0.0500003 0.00109989
0.15 -0.0500003 0.00109989
0.1625 -0.0500003 0.00109989
0.175 -0.0500003 0.00109989
0.1875 -0.0500003 0.00109989
0.2 -0.0500003 0.00109989
0.2125 -0.0500003 0.00109989
0.225 -0.0500003 0.00109989
0.2375 -0.0500003 0.00109989
0.25 -0.0500003 0.00109989
0.2625 -0.0500003 0.00109988
0.275 -0.0500003 0.00109988
0.2875 -0.0500003 0.00109988
0.3 -0.0500003 0.00109988
0.3125 -0.0500003 0.00109988
0.325 -0.0500003 0.00109988
0.3375 -0.0500003 0.00109988
0.35 -0.0500003 0.00109988
0.3625 -0.0500003 0.00109988
0.375 -0.0500003 0.00109988
0.3875 -0.0500003 0.00109988
0.4 -0.0500004 0.00109988
0.4125 -0.0500004 0.00109988
0.425 -0.0500004 0.00109988
0.4375 -0.0500004 0.00109988
0.45 -0.0500004 0.00109988
0.4625 -0.0500004 0.00109988
0.475 -0.0500004 0.00109988
0.4875 -0.0500004 0.00109988
0.5 -0.0500004 0.00109988
0.5125 -0.0500004 0.00109988
0.525 -0.0500004 0.00109988
0.5375 -0.0500004 0.00109988
0.55 -0.0500004 0.00109988
0.5625 -0.0500004 0.00109988
0.575 -0.0500004 0.00109987
0.5875 -0.0500004 0.00109987
0.6 -0.0500004 0.00109987
0.6125 -0.0500004 0.00109987
0.625 -0.0500004 0.00109987
0.6375 -0.0500004 0.00109987
0.65 -0.0500004 0.00109987
0.6625 -0.0500004 0.00109987
0.675 -0.0500004 0.00109987
0.6875 -0.0500004 0.00109987
0.7 -0.0500004 0.00109987
0.7125 -0.0500004 0.00109987
0.725 -0.0500004 0.00109987
0.7375 -0.0500004 0.00109987
0.75 -0.0500004 0.00109987
0.7625 -0.0500004 0.00109987
0.775 -0.0500004 0.00109987
0.7875 -0.0500004 0.00109987
0.8 -0.0500004 0.00109987
0.8125 -0.0500004 0.00109987
0.825 -0.0500004 0.00109987
0.8375 -0.0500004 0.00109987
0.85 -0.0500004 0.00109987
0.8625 -0.0500004 0.00109987
0.875 -0.0500004 0.00109987
0.8875 -0.0500004 0.00109987
0.9 -0.0500004 0.00109987
0.9125 -0.0500005 0.00109988
0.925 -0.0500005 0.00109988
0.9375 -0.0500005 0.00109988
0.95 -0.0500005 0.00109988
0.9625 -0.0500005 0.00109988
0.975 -0.0500005 0.00109988
0.9875 -0.0500005 0.00109988
1 -0.0500005 0.00109988
1.0125 -0.0500005 0.00109988
1.025 -0.0500005 0.00109988
1.0375 -0.0500005 0.00109988
1.05 -0.0500005 0.00109988
1.0625 -0.0500005 0.00109988
1.075 -0.0500005 0.00109988
1.0875 -0.0500005 0.00109988
1.1 -0.0500005 0.00109988
1.1125 -0.0500005 0.00109988
1.125 -0.0500005 0.00109988
1.1375 -0.0500005 0.00109988
1.15 -0.0500005 0.00109988
1.1625 -0.0500005 0.00109988
1.175 -0.0500005 0.00109988
1.1875 -0.0500005 0.00109988
1.2 -0.0500005 0.00109988
1.2125 -0.0500005 0.00109988
1.225 -0.0500005 0.00109988
1.2375 -0.0500005 0.00109989
1.25 -0.0500005 0.00109989
1.2625 -0.0500005 0.00109989
1.275 -0.0500005 0.00109989
1.2875 -0.0500005 0.00109989
1.3 -0.0500005 0.00109989
1.3125 -0.0500005 0.00109989
1.325 -0.0500005 0.00109989
1.3375 -0.0500005 0.00109989
1.35 -0.0500005 0.00109989
1.3625 -0.0500005 0.00109989
1.375 -0.0500005 0.00109989
1.3875 -0.0500005 0.00109989
1.4 -0.0500005 0.00109989
1.4125 -0.0500005 0.00109989
1.425 -0.0500005 0.00109989
1.4375 -0.0500005 0.0010999
1.45 -0.0500005 0.0010999
1.4625 -0.0500005 0.0010999
1.475 -0.0500005 0.0010999
1.4875 -0.0500005 0.0010999
1.5 -0.0500006 0.0010999
1.5125 -0.0500006 0.0010999
1.525 -0.0500006 0.0010999
1.5375 -0.0500006 0.0010999
1.55 -0.0500006 0.0010999
1.5625 -0.0500006 0.0010999
1.575 -0.0500006 0.0010999
1.5875 -0.0500006 0.0010999
1.6 -0.0500006 0.0010999
1.6125 -0.0500006 0.00109991
1.625 -0.0500006 0.00109991
1.6375 -0.0500006 0.00109991
1.65 -0.0500006 0.00109991
1.6625 -0.0500006 0.00109991
1.675 -0.0500006 0.00109991
1.6875 -0.0500006 0.00109991
1.7 -0.0500006 0.00109991
1.7125 -0.0500006 0.00109991
1.725 -0.0500006 0.00109991
1.7375 -0.0500006 0.00109991
1.75 -0.0500006 0.00109991
1.7625 -0.0500006 0.00109992
1.775 -0.0500006 0.00109992
1.7875 -0.0500006 0.00109992
1.8 -0.0500006 0.00109992
1.8125 -0.0500006 0.00109992
1.825 -0.0500006 0.00109992
1.8375 -0.0500006 0.00109992
1.85 -0.0500006 0.00109992
1.8625 -0.0500006 0.00109992
1.875 -0.0500006 0.00109992
1.8875 -0.0500006 0.00109992
1.9 -0.0500006 0.00109992
1.9125 -0.0500006 0.00109993
1.925 -0.0500006 0.00109993
1.9375 -0.0500006 0.00109993
1.95 -0.0500006 0.00109993
1.9625 -0.0500006 0.00109993
1.975 -0.0500006 0.00109993
1.9875 -0.0500006 0.00109993
2 -0.0500006 0.00109993
2.0125 -0.0500006 0.00109993
2.025 -0.0500006 0.00109993
2.0375 -0.0500006 0.00109993
2.05 -0.0500006 0.00109993
2.0625 -0.0500006 0.00109993
2.075 -0.0500006 0.00109994
2.0875 -0.0500006 0.00109994
2.1 -0.0500006 0.00109994
2.1125 -0.0500006 0.00109994
2.125 -0.0500006 0.00109994
2.1375 -0.0500006 0.00109994
2.15 -0.0500006 0.00109994
2.1625 -0.0500006 0.00109994
2.175 -0.0500007 0.00109994
2.1875 -0.0500007 0.00109994
2.2 -0.0500007 0.00109994
2.2125 -0.0500007 0.00109994
2.225 -0.0500007 0.00109995
2.2375 -0.0500007 0.00109995
2.25 -0.0500007 0.00109995
2.2625 -0.0500007 0.00109995
2.275 -0.0500007 0.00109995
2.2875 -0.0500007 0.00109995
2.3 -0.0500007 0.00109995
2.3125 -0.0500007 0.00109995
2.325 -0.0500007 0.00109995
2.3375 -0.0500007 0.00109995
2.35 -0.0500007 0.00109995
2.3625 -0.0500007 0.00109995
2.375 -0.0500007 0.00109995
2.3875 -0.0500007 0.00109996
2.4 -0.0500007 0.00109996
2.4125 -0.0500007 0.00109996
2.425 -0.0500007 0.00109996
2.4375 -0.0500007 0.00109996
2.45 -0.0500007 0.00109996
2.4625 -0.0500007 0.00109996
2.475 -0.0500007 0.00109996
2.4875 -0.0500007 0.00109996
2.5 -0.0500007 0.00109996
2.5125 -0.0500007 0.00109996
2.525 -0.0500007 0.00109996
2.5375 -0.0500007 0.00109996
2.55 -0.0500007 0.00109996
2.5625 -0.0500007 0.00109997
2.575 -0.0500007 0.00109997
2.5875 -0.0500007 0.00109997
2.6 -0.0500007 0.00109997
2.6125 -0.0500007 0.00109997
2.625 -0.0500007 0.00109997
2.6375 -0.0500007 0.00109997
2.65 -0.0500007 0.00109997
2.6625 -0.0500007 0.00109997
2.675 -0.0500007 0.00109997
2.6875 -0.0500007 0.00109997
2.7 -0.0500007 0.00109997
2.7125 -0.0500007 0.00109997
2.725 -0.0500007 0.00109997
2.7375 -0.0500007 0.00109997
2.75 -0.0500007 0.00109997
2.7625 -0.0500007 0.00109998
2.775 -0.0500007 0.00109998
2.7875 -0.0500007 0.00109998
2.8 -0.0500007 0.00109998
2.8125 -0.0500007 0.00109998
2.825 -0.0500007 0.00109998
2.8375 -0.0500007 0.00109998
2.85 -0.0500007 0.00109998
2.8625 -0.0500008 0.00109998
2.875 -0.0500008 0.00109998
2.8875 -0.0500008 0.00109998
2.9 -0.0500008 0.00109998
2.9125 -0.0500008 0.00109998
2.925 -0.0500008 0.00109998
2.9375 -0.0500008 0.00109998
2.95 -0.0500008 0.00109998
2.9625 -0.0500008 0.00109998
2.975 -0.0500008 0.00109998
2.9875 -0.0500008 0.00109998
3 -0.0500008 0.00109998
3.0125 -0.0500008 0.00109999
3.025 -0.0500008 0.00109999
3.0375 -0.0500008 0.00109999
3.05 -0.0500008 0.00109999
3.0625 -0.0500008 0.00109999
3.075 -0.0500008 0.00109999
3.0875 -0.0500008 0.00109999
3.1 -0.0500008 0.00109999
3.1125 -0.0500008 0.00109999
3.125 -0.0500008 0.00109999
3.1375 -0.0500008 0.00109999
3.15 -0.0500008 0.00109999
3.1625 -0.0500008 0.00109999
3.175 -0.0500008 0.00109999
3.1875 -0.0500008 0.00109999
3.2 -0.0500008 0.00109999
3.2125 -0.0500008 0.00109999
3.225 -0.0500008 0.00109999
3.2375 -0.0500008 0.00109999
3.25 -0.0500008 0.00109999
3.2625 -0.0500008 0.00109999
3.275 -0.0500008 0.00109999
3.2875 -0.0500008 0.00109999
3.3 -0.0500008 0.00109999
3.3125 -0.0500008 0.00109999
3.325 -0.0500008 0.00109999
3.3375 -0.0500008 0.00109999
3.35 -0.0500008 0.0011
3.3625 -0.0500008 0.0011
[...]
POINT_DATA 15780
 FIELD attributes 2
p 1 15780 float
-0.0310974 -0.0311135 -0.0311295 -0.0311456 -0.0311616 -0.0311777 -0.0321091 -0.0330329 -0.0339566 -0.0348803 -0.0359007 -0.0369646 -0.038031 -0.0390973 -0.0401637 -0.0411834 -0.0421668 -0.0431316 -0.0440964 -0.0450612 -0.0459744 -0.0468722 -0.0477747 -0.0486773 -0.0495798 -0.0504766 -0.0513772 -0.0522787 -0.0531802 -0.0540817 -0.0549825 -0.05589 -0.056798 -0.0577059 -0.0586139 -0.0595214 -0.0604209 -0.0613184 -0.0622159 -0.0631134 -0.064008 -0.0648871 -0.0657642 -0.0666414 -0.0675186 -0.0683936 -0.069251 -0.0701063 -0.0709616 -0.0718169 -0.0726703 -0.0735049 -0.0743369 -0.075169 -0.076001 -0.0768307 -0.077639 -0.0784442 -0.0792493 -0.0800545 -0.0808568 -0.0816349 -0.0824092 -0.0831835 -0.0839577 -0.0847284 -0.0854726 -0.0862125 -0.0869525 -0.0876924 -0.0884285 -0.0891358 -0.0898383 -0.0905409 -0.0912435 -0.0919414 -0.0926087 -0.0932709 -0.093933 -0.0945952 -0.0952524 -0.0958768 -0.0964957 -0.0971145 -0.0977334 -0.0983466 -0.0989256 -0.0994988 -0.100072 -0.100645 -0.101213 -0.101745 -0.102271 -0.102797 -0.103324 -0.103844 -0.104328 -0.104806 -0.105284 -0.105761 -0.106233 -0.106667 -0.107094 -0.10752 -0.107947 -0.108366 -0.108747 -0.10912 -0.109493 -0.109865 -0.110231 -0.110555 -0.110872 -0.111189 -0.111506 -0.111816 -0.112084 -0.112344 -0.112604 -0.112864 -0.113117 -0.113327 -0.11353 -0.113732 -0.113935 -0.11413 -0.114282 -0.114426 -0.11457 -0.114714 -0.11485 -0.114943 -0.115029 -0.115114 -0.115199 -0.115277 -0.115313 -0.115342 -0.115371 -0.115399 -0.115421 -0.115403 -0.115377 -0.115352 -0.115326 -0.115294 -0.115223 -0.115145 -0.115068 -0.11499 -0.114905 -0.114782 -0.114653 -0.114523 -0.114394 -0.114257 -0.114083 -0.113902 -0.113721 -0.11354 -0.113351 -0.113127 -0.112897 -0.112666 -0.112436 -0.112198 -0.111928 -0.111651 -0.111374 -0.111098 -0.110814 -0.1105 -0.110179 -0.109858 -0.109538 -0.10921 -0.108854 -0.108492 -0.108129 -0.107767 -0.107398 -0.107001 -0.106599 -0.106197 -0.105795 -0.105388 -0.104954 -0.104516 -0.104078 -0.103639 -0.103196 -0.102729 -0.102259 -0.101788 -0.101318 -0.100843 -0.100349 -0.0998507 -0.0993526 -0.0988545 -0.0983523 -0.0978335 -0.0973111 -0.0967886 -0.0962662 -0.0957399 -0.095199 -0.0946546 -0.0941102 -0.0935659 -0.0930178 -0.0924568 -0.0918931 -0.0913293 -0.0907655 -0.0901986 -0.0896209 -0.0890407 -0.0884605 -0.0878804 -0.0872972 -0.0867058 -0.0861124 -0.085519 -0.0849256 -0.0843299 -0.0837281 -0.0831245 -0.082521 -0.0819175 -0.0813119 -0.0807023 -0.0800914 -0.0794806 -0.0788698 -0.0782575 -0.0776431 -0.0770277 -0.0764123 -0.0757969 -0.0751802 -0.0745633 -0.0739458 -0.0733284 -0.072711 -0.0720929 -0.0714761 -0.0708591 -0.0702421 -0.0696251 -0.0690076 -0.0683931 -0.0677787 -0.0671644 -0.06655 -0.0659356 -0.0653256 -0.0647159 -0.0641062 -0.0634965 -0.0628869 -0.0622829 -0.0616797 -0.0610765 -0.0604733 -0.0598706 -0.0592747 -0.0586797 -0.0580847 -0.0574897 -0.0568953 -0.0563088 -0.0557236 -0.0551383 -0.054553 -0.0539688 -0.0533934 -0.0528192 -0.0522451 -0.051671 -0.051098 -0.0505346 -0.0499728 -0.049411 -0.0488493 -0.0482889 -0.0477389 -0.0471906 -0.0466422 -0.0460938 -0.045547 -0.045011 -0.044477 -0.043943 -0.0434089 -0.0428767 -0.0423558 -0.0418368 -0.0413179 -0.040799 -0.0402818 -0.0397765 -0.0392733 -0.0387701 -0.0382669 -0.0377656 -0.0372765 -0.0367896 -0.0363026 -0.0358156 -0.0353307 -0.0348581 -0.0343877 -0.0339174 -0.033447 -0.0329788 -0.0325231 -0.0320696 -0.0316162 -0.0311627 -0.0307114 -0.0302726 -0.0298362 -0.0293998 -0.0289634 -0.0285293 -0.0281076 -0.0276883 -0.0272689 -0.0268496 -0.0264326 -0.026028 -0.0256257 -0.0252235 -0.0248213 -0.0244214 -0.0240339 -0.0236488 -0.0232637 -0.0228786 -0.0224959 -0.0221255 -0.0217576 -0.0213897 -0.0210218 -0.0206564 -0.0203032 -0.0199525 -0.0196017 -0.019251 -0.0189026 -0.0185659 -0.0182319 -0.0178979 -0.0175639 -0.0172323 -0.016912 -0.0165941 -0.0162762 -0.0159583 -0.0156428 -0.0153383 -0.0150359 -0.0147336 -0.0144313 -0.0141315 -0.0138422 -0.0135551 -0.013268 -0.012981 -0.0126965 -0.0124222 -0.0121501 -0.011878 -0.0116059 -0.0113361 -0.0110764 -0.010819 -0.0105615 -0.0103041 -0.0100489 -0.00980357 -0.00956042 -0.00931726 -0.00907411 -0.00883315 -0.00860168 -0.00837225 -0.00814281 -0.00791338 -0.00768603 -0.00746768 -0.00725143 -0.00703518 -0.00681894 -0.00660477 -0.00639924 -0.00619575 -0.00599225 -0.00578875 -0.00558725 -0.00539403 -0.00520292 -0.00501181 -0.00482069 -0.00463168 -0.00445064 -0.00427171 -0.00409277 -0.00391384 -0.00373695 -0.00356772 -0.00340054 -0.00323336 -0.00306618 -0.00290105 -0.002743 -0.00258683 -0.00243065 -0.00227448 -0.00212033 -0.00197282 -0.00182684 -0.00168086 -0.00153488 -0.00139068 -0.00125272 -0.00111637 -0.000980009 -0.000843651 -0.000709068 -0.000580395 -0.00045333 -0.000326266 -0.000199201 -7.37823e-05 4.58851e-05 0.000163937 0.000281989 0.000400041 0.000516474 0.00062746 0.00073686 0.00084626 0.00095566 0.00106344 0.00116617 0.00126736 0.00136855 0.00146974 0.00156934 0.00166423 0.00175766 0.0018511 0.00194453 0.00203645 0.00212398 0.00221009 0.00229619 0.0023823 0.00246693 0.00254743 0.0026266 0.00270578 0.00278495 0.00286273 0.00293666 0.00300929 0.00308191 0.00315454 0.00322577 0.00329347 0.00335992 0.00342637 0.00349282 0.00355797 0.00361983 0.00368046 0.0037411 0.00380174 0.00386109 0.00391741 0.00397259 0.00402777 0.00408295 0.00413692 0.00418812 0.00423817 0.00428823 0.00433829 0.00438714 0.00443345 0.00447868 0.00452392 0.00456915 0.00461325 0.00465502 0.00469572 0.00473643 0.00477713 0.00481673 0.00485418 0.00489065 0.00492711 0.00496358 0.004999 0.00503249 0.005065 0.00509751 0.00513002 0.00516148 0.00519122 0.00522003 0.00524884 0.00527766 0.0053055 0.00533178 0.00535714 0.00538251 0.00540787 0.00543228 0.00545528 0.00547744 0.0054996 0.00552175 0.00554301 0.00556304 0.00558223 0.00560141 0.0056206 0.00563888 0.0056561 0.00567254 0.00568897 0.0057054 0.005721 0.00573567 0.00574956 0.00576345 0.00577734 0.0057904 0.00580267 0.00581421 0.00582575 0.00583729 0.00584806 0.00585816 0.00586754 0.00587692 0.00588629 0.00589489 0.00590296 0.00591036 0.00591775 0.00592514 0.00593181 0.00593806 0.00594363 0.00594921 0.00595478 0.00595964 0.00596418 0.0059681 0.00597201 0.00597593 0.00597917 0.00598222 0.00598463 0.00598704 0.00598945 0.00599119 0.00599282 0.00599386 0.0059949 0.00599595 0.00599636 0.00599676 0.00599656 0.00599636 0.00599616 0.00599533 0.00599457 0.00599326 0.00599196 0.00599065 0.00598876 0.00598702 0.00598473 0.00598244 0.00598015 0.00597727 0.00597462 0.00597145 0.00596828 0.00596511 0.00596139 0.00595797 0.00595402 0.00595008 0.00594613 0.00594164 0.00593752 0.0059329 0.00592829 0.00592368 0.00591856 0.00591387 0.00590869 0.00590351 0.00589834 0.00589265 0.00588746 0.00588181 0.00587616 0.00587052 0.00586438 0.00585881 0.00585278 0.00584675 0.00584072 0.0058342 0.00582831 0.00582198 0.00581565 0.00580931 0.00580253 0.00579641 0.00578986 0.00578331 0.00577677 0.00576976 0.00576349 0.0057568 0.00575011 0.00574342 0.00573629 0.00572995 0.00572319 0.00571644 0.00570968 0.00570249 0.00569614 0.00568939 0.00568264 0.00567588 0.00566871 0.00566243 0.00565575 0.00564907 0.00564239 0.0056353 0.00562914 0.0056226 0.00561605 0.00560951 0.00560257 0.00559661 0.00559026 0.00558392 0.00557757 0.00557084 0.00556514 0.00555905 0.00555296 0.00554688 0.00554041 0.00553501 0.00552924 0.00552346 0.00551769 0.00551154 0.00550651 0.0055011 0.00549568 0.00549027 0.00548448 0.00547985 0.00547484 0.00546982 0.00546481 0.00545944 0.00545524 0.00545065 0.00544606 0.00544148 0.00543651 0.00543273 0.00542856 0.0054244 0.00542023 0.00541569 0.0054123 0.00540849 0.00540468 0.00540087 0.00539666 0.00539346 0.00538982 0.00538618 0.00538254 0.00537848 0.00537507 0.00537115 0.00536724 0.00536332 0.00535892 0.00535402 0.00534829 0.00534257 0.00533684 0.00533033 0.00532156 0.00531235 0.00530314 0.00529394 0.00528424 0.00525812 0.00522647 0.00519482 0.00516317 0.00512663 0.00511515 0.00511781 0.00512046 0.00512311 0.00514873 0.00523234 0.00530838 0.00538775 0.00545072 0.00549634 0.00548931 0.00548548 0.00548165 0.00547784 0.00547632 0.0055032 0.00553088 0.00555857 0.00557825 0.00559921 0.00561315 0.005632 0.00565089 0.00566977 0.0056841 0.005747 0.00581201 0.00587703 0.00594204 0.00599856 0.00609 0.00616611 0.00624222 0.00631834 0.00632349 0.00630886 0.00628948 0.0062701 0.00625073 0.00624085 0.00604 0.00581844 0.00559687 0.00537531 0.00504794 0.00456794 0.00407405 0.00358016 0.00308627 0.00262217 0.0023524 0.00207508 0.00179777 0.00152045 0.0012731 0.00117449 0.00106945 0.000964405 0.000859364 0.000773701 0.000667771 0.000556284 0.000444797 0.000333309 0.000255304
-0.0319468 -0.0319659 -0.031985 -0.0320041 -0.0320232 -0.0320423 -0.0327432 -0.0336208 -0.0344035 -0.0351659 -0.0362242 -0.0372609 -0.0382513 -0.0392537 -0.0403131 -0.0412971 -0.0422583 -0.0432243 -0.0441649 -0.0451002 -0.0460061 -0.0469042 -0.0478102 -0.0487162 -0.0496213 -0.0505263 -0.0514181 -0.0523218 -0.0532305 -0.0541402 -0.0550606 -0.0559657 -0.0568779 -0.0577897 -0.0586992 -0.0596143 -0.0605156 -0.0614139 -0.0623135 -0.0632134 -0.0641096 -0.0649906 -0.0658706 -0.0667502 -0.0676278 -0.0685037 -0.0693619 -0.0702175 -0.0710757 -0.0719345 -0.072791 -0.073625 -0.0744604 -0.0752953 -0.0761276 -0.0769613 -0.0777686 -0.0785739 -0.0793817 -0.0801899 -0.0809967 -0.0817723 -0.0825495 -0.0833262 -0.0841006 -0.0848765 -0.0856173 -0.0863573 -0.0870996 -0.0878423 -0.0885847 -0.0892871 -0.0899923 -0.090697 -0.0913996 -0.0921051 -0.0927663 -0.0934285 -0.0940927 -0.0947573 -0.0954231 -0.09604 -0.0966611 -0.0972817 -0.0979005 -0.0985233 -0.0990923 -0.0996653 -0.10024 -0.100815 -0.101394 -0.101913 -0.102441 -0.102968 -0.103494 -0.104029 -0.104501 -0.104979 -0.105457 -0.105936 -0.106421 -0.106843 -0.10727 -0.107697 -0.108124 -0.108555 -0.108925 -0.109298 -0.10967 -0.110043 -0.110418 -0.110733 -0.111049 -0.111365 -0.111682 -0.112001 -0.11226 -0.11252 -0.11278 -0.113039 -0.113299 -0.113501 -0.113703 -0.113905 -0.114108 -0.11431 -0.114454 -0.114598 -0.114742 -0.114886 -0.115029 -0.115111 -0.115197 -0.115282 -0.115368 -0.115455 -0.115479 -0.115508 -0.115536 -0.115565 -0.115599 -0.115566 -0.11554 -0.115514 -0.115489 -0.115469 -0.115385 -0.115307 -0.115227 -0.115148 -0.115074 -0.114938 -0.114805 -0.114673 -0.114543 -0.114415 -0.114229 -0.114047 -0.113863 -0.113678 -0.113498 -0.113263 -0.113029 -0.112795 -0.112564 -0.112335 -0.112053 -0.111776 -0.111496 -0.111215 -0.110939 -0.110614 -0.11029 -0.109966 -0.109645 -0.109324 -0.108959 -0.108596 -0.108231 -0.107866 -0.107502 -0.107099 -0.106695 -0.106291 -0.105889 -0.105486 -0.105045 -0.104607 -0.104167 -0.103727 -0.103288 -0.102812 -0.102339 -0.101866 -0.101395 -0.100927 -0.100422 -0.0999229 -0.0994218 -0.0989201 -0.0984251 -0.097896 -0.0973697 -0.0968441 -0.0963211 -0.0958009 -0.0952513 -0.0947065 -0.0941592 -0.0936113 -0.0930682 -0.0924997 -0.0919326 -0.091366 -0.0908019 -0.0902388 -0.0896542 -0.0890737 -0.0884909 -0.0879075 -0.0873281 -0.0867303 -0.0861339 -0.0855379 -0.0849442 -0.0843515 -0.0837438 -0.08314 -0.082534 -0.0819276 -0.0813248 -0.08071 -0.0800965 -0.0794834 -0.0788722 -0.0782621 -0.077643 -0.0770273 -0.0764097 -0.0757917 -0.0751771 -0.074556 -0.0739362 -0.0733168 -0.0726991 -0.0720824 -0.071462 -0.0708448 -0.0702259 -0.0696068 -0.0689906 -0.068373 -0.0677567 -0.0671407 -0.0665262 -0.0659126 -0.0653 -0.0646901 -0.0640789 -0.0634674 -0.0628585 -0.0622525 -0.0616476 -0.061043 -0.0604397 -0.0598372 -0.0592396 -0.0586444 -0.0580482 -0.0574517 -0.0568575 -0.0562698 -0.0556832 -0.0550968 -0.0545114 -0.053927 -0.0533506 -0.0527764 -0.0522013 -0.051626 -0.0510528 -0.0504889 -0.0499261 -0.0493635 -0.0488016 -0.0482407 -0.0476904 -0.047142 -0.0465929 -0.0460437 -0.0454962 -0.0449604 -0.0444257 -0.043891 -0.043357 -0.0428238 -0.0423032 -0.0417843 -0.0412649 -0.0407453 -0.0402273 -0.0397226 -0.039219 -0.0387154 -0.0382122 -0.0377098 -0.0372215 -0.0367346 -0.0362473 -0.03576 -0.035274 -0.0348024 -0.0343318 -0.0338613 -0.033391 -0.0329215 -0.032467 -0.0320135 -0.03156 -0.0311064 -0.0306538 -0.0302164 -0.02978 -0.0293436 -0.0289072 -0.0284717 -0.0280515 -0.0276322 -0.027213 -0.0267938 -0.0263755 -0.0259724 -0.0255704 -0.0251683 -0.0247661 -0.0243648 -0.0239788 -0.0235938 -0.0232088 -0.0228238 -0.0224399 -0.0220708 -0.0217032 -0.0213356 -0.0209677 -0.0206011 -0.0202491 -0.0198985 -0.019548 -0.0191975 -0.0188482 -0.0185127 -0.0181788 -0.0178449 -0.017511 -0.0171783 -0.0168597 -0.0165419 -0.0162242 -0.0159065 -0.0155898 -0.0152873 -0.0149853 -0.0146833 -0.0143811 -0.0140794 -0.0137929 -0.0135059 -0.0132192 -0.0129326 -0.0126457 -0.0123743 -0.0121027 -0.011831 -0.0115589 -0.0112867 -0.0110297 -0.0107723 -0.0105152 -0.0102582 -0.0100007 -0.00975797 -0.00951527 -0.0092725 -0.00902939 -0.00878647 -0.00855749 -0.00832814 -0.0080992 -0.00787034 -0.007641 -0.00742532 -0.0072098 -0.00699417 -0.00677804 -0.00656218 -0.00635909 -0.0061557 -0.00595283 -0.00575009 -0.00554705 -0.00535606 -0.0051657 -0.00497521 -0.00478418 -0.0045937 -0.00441455 -0.00423567 -0.0040572 -0.00387881 -0.00370079 -0.00353279 -0.00336584 -0.00319886 -0.00303172 -0.00286539 -0.00270877 -0.00255266 -0.00239666 -0.00224068 -0.00208535 -0.00193965 -0.00179407 -0.00164844 -0.00150258 -0.00135701 -0.0012216 -0.00108537 -0.000949524 -0.000813766 -0.000677246 -0.000551282 -0.000424882 -0.000298381 -0.000171429 -4.41887e-05 7.30824e-05 0.000191049 0.000308576 0.000426005 0.000544171 0.000652988 0.00076184 0.000870779 0.000980111 0.00108946 0.00119017 0.0012913 0.00139207 0.00149276 0.00159383 0.00168683 0.00177979 0.00187283 0.00196619 0.0020595 0.00214516 0.00223119 0.00231691 0.00240256 0.00248852 0.00256727 0.00264598 0.00272476 0.00280386 0.00288291 0.00295507 0.00302763 0.00309986 0.00317202 0.00324451 0.00331057 0.00337658 0.00344266 0.00350905 0.00357537 0.00363561 0.00369619 0.00375649 0.00381673 0.00387724 0.00393204 0.00398687 0.00404175 0.00409688 0.00415202 0.00420163 0.00425163 0.00430139 0.0043511 0.00440112 0.00444591 0.00449079 0.00453572 0.0045809 0.00462614 0.00466636 0.00470701 0.00474742 0.00478778 0.0048285 0.0048645 0.00490063 0.00493681 0.00497323 0.00500977 0.00504177 0.00507423 0.00510647 0.00513866 0.00517123 0.00519956 0.00522806 0.00525662 0.00528538 0.00531431 0.00533916 0.00536449 0.00538961 0.00541468 0.00544016 0.00546183 0.00548371 0.00550563 0.00552775 0.00555007 0.00556873 0.00558788 0.00560684 0.00562576 0.0056451 0.00566103 0.0056772 0.00569342 0.00570982 0.00572644 0.0057398 0.00575365 0.00576733 0.00578098 0.00579506 0.00580608 0.00581739 0.00582873 0.00584024 0.00585201 0.00586084 0.00587018 0.00587937 0.00588853 0.00589814 0.005905 0.00591218 0.00591939 0.00592675 0.00593441 0.00593943 0.00594497 0.00595037 0.00595575 0.00596159 0.00596497 0.0059687 0.00597246 0.00597634 0.00598057 0.00598241 0.00598479 0.00598705 0.00598928 0.00599201 0.0059925 0.00599337 0.00599426 0.00599528 0.00599666 0.00599588 0.00599566 0.00599532 0.00599496 0.00599511 0.00599322 0.00599176 0.00599033 0.005989 0.00598809 0.00598521 0.0059829 0.00598049 0.00597805 0.00597612 0.00597239 0.00596908 0.00596579 0.0059626 0.00595981 0.00595529 0.00595133 0.00594727 0.00594319 0.00593963 0.00593446 0.00592973 0.00592501 0.00592038 0.00591618 0.00591043 0.00590524 0.00589996 0.00589467 0.00588991 0.0058837 0.00587794 0.0058722 0.00586654 0.00586133 0.00585472 0.00584867 0.00584255 0.00583642 0.00583082 0.00582392 0.0058175 0.00581109 0.00580474 0.00579887 0.00579173 0.00578517 0.00577855 0.00577191 0.00576582 0.00575856 0.00575178 0.00574502 0.00573832 0.00573212 0.00572476 0.005718 0.00571118 0.00570434 0.00569807 0.00569074 0.00568392 0.00567711 0.00567035 0.0056641 0.00565682 0.00565013 0.0056434 0.00563665 0.00563048 0.00562335 0.00561676 0.00561017 0.00560361 0.0055976 0.00559065 0.0055843 0.00557791 0.00557152 0.00556571 0.00555904 0.00555292 0.0055468 0.0055407 0.00553518 0.0055288 0.00552302 0.00551722 0.00551142 0.00550621 0.00550021 0.00549478 0.00548936 0.00548394 0.00547912 0.00547351 0.00546849 0.00546349 0.00545848 0.00545408 0.00544891 0.00544436 0.00543981 0.00543522 0.00543129 0.00542653 0.00542237 0.00541828 0.00541421 0.00541076 0.00540639 0.00540279 0.00539916 0.00539537 0.0053924 0.00538823 0.00538464 0.00538141 0.00537826 0.0053757 0.00537137 0.00536856 0.00536556 0.00536178 0.00535951 0.00535418 0.00534893 0.00534593 0.00534347 0.00534104 0.005332 0.00533026 0.00532734 0.0053194 0.00531836 0.00530404 0.00527947 0.00527497 0.00527519 0.00526445 0.00522155 0.00523313 0.0052435 0.00524877 0.00531688 0.00541034 0.0054739 0.00553748 0.00557546 0.00552915 0.00550993 0.00550289 0.00549586 0.00548836 0.00549236 0.0055099 0.00552807 0.00554624 0.00555795 0.00556921 0.00557027 0.00557132 0.00557237 0.0055733 0.005574 0.00559883 0.00562779 0.00565683 0.00568587 0.00565926 0.00569742 0.00576006 0.00582308 0.0058861 0.00596609 0.00618038 0.0062694 0.00635187 0.00642798 0.00632106 0.00635693 0.00633756 0.00632111 0.00631165 0.00625628 0.00620974 0.00598818 0.00576662 0.00553248 0.00503887 0.00469925 0.00420536 0.00371147 0.00321491 0.00259609 0.00241446 0.00213715 0.00185983 0.00158251 0.0012427 0.00122359 0.00111855 0.00101351 0.000908468 0.00075127 0.000715263 0.000603778 0.000492293 0.000380807 0.000206778