# vtk DataFile Version 2.0
track0
ASCII
DATASET POLYDATA
POINTS 15780 float
-1.001 -0.05 0.0011
-1.0008 -0.05 0.0011
-1.0006 -0.05 0.0011
-1.0004 -0.05 0.0011
-1.0002 -0.05 0.0011
-1 -0.05 0.0011
-0.9875 -0.05 0.0011
-0.975 -0.05 0.0011
-0.9625 -0.05 0.0011
-0.95 -0.05 0.0011
-0.9375 -0.05 0.00109999
-0.925 -0.05 0.00109999
-0.9125 -0.05 0.00109999
-0.9 -0.05 0.00109999
-0.8875 -0.05 0.00109999
-0.875 -0.05 0.00109999
-0.8625 -0.05 0.00109999
-0.85 -0.05 0.00109999
-0.8375 -0.05 0.00109998
-0.825 -0.0500001 0.00109998
-0.8125 -0.0500001 0.00109998
-0.8 -0.0500001 0.00109998
-0.7875 -0.0500001 0.00109998
-0.775 -0.0500001 0.00109998
-0.7625 -0.0500001 0.00109998
-0.75 -0.0500001 0.00109998
-0.7375 -0.0500001 0.00109997
-0.725 -0.0500001 0.00109997
-0.7125 -0.0500001 0.00109997
-0.7 -0.0500001 0.00109997
-0.6875 -0.0500001 0.00109997
-0.675 -0.0500001 0.00109997
-0.6625 -0.0500001 0.00109997
-0.65 -0.0500001 0.00109996
-0.6375 -0.0500001 0.00109996
-0.625 -0.0500001 0.00109996
-0.6125 -0.0500001 0.00109996
-0.6 -0.0500001 0.00109996
-0.5875 -0.0500001 0.00109996
-0.575 -0.0500001 0.00109996
-0.5625 -0.0500001 0.00109996
-0.55 -0.0500001 0.00109995
-0.5375 -0.0500001 0.00109995
-0.525 -0.0500001 0.00109995
-0.5125 -0.0500001 0.00109995
-0.5 -0.0500001 0.00109995
-0.4875 -0.0500001 0.00109995
-0.475 -0.0500001 0.00109995
-0.4625 -0.0500001 0.00109994
-0.45 -0.0500002 0.00109994
-0.4375 -0.0500002 0.00109994
-0.425 -0.0500002 0.00109994
-0.4125 -0.0500002 0.00109994
-0.4 -0.0500002 0.00109994
-0.3875 -0.0500002 0.00109994
-0.375 -0.0500002 0.00109994
-0.3625 -0.0500002 0.00109993
-0.35 -0.0500002 0.00109993
-0.3375 -0.0500002 0.00109993
-0.325 -0.0500002 0.00109993
-0.3125 -0.0500002 0.00109993
-0.3 -0.0500002 0.00109993
-0.2875 -0.0500002 0.00109993
-0.275 -0.0500002 0.00109993
-0.2625 -0.0500002 0.00109992
-0.25 -0.0500002 0.00109992
-0.2375 -0.0500002 0.00109992
-0.225 -0.0500002 0.00109992
-0.2125 -0.0500002 0.00109992
-0.2 -0.0500002 0.00109992
-0.1875 -0.0500002 0.00109992
-0.175 -0.0500002 0.00109992
-0.1625 -0.0500002 0.00109991
-0.15 -0.0500002 0.00109991
-0.1375 -0.0500002 0.00109991
-0.125 -0.0500002 0.00109991
-0.1125 -0.0500002 0.00109991
-0.1 -0.0500002 0.00109991
-0.0875 -0.0500002 0.00109991
-0.075 -0.0500002 0.00109991
-0.0625 -0.0500002 0.00109991
-0.05 -0.0500003 0.00109991
-0.0375 -0.0500003 0.0010999
-0.025 -0.0500003 0.0010999
-0.0125 -0.0500003 0.0010999
2.10607e-13 -0.0500003 0.0010999
0.0125 -0.0500003 0.0010999
0.025 -0.0500003 0.0010999
0.0375 -0.0500003 0.0010999
0.05 -0.0500003 0.0010999
0.0625 -0.0500003 0.0010999
0.075 -0.0500003 0.0010999
0.0875 -0.0500003 0.0010999
0.1 -0.0500003 0.00109989
0.1125 -0.0500003 0.00109989
0.125 -0.0500003 0.00109989
0.1375 -0.0500003 0.00109989
0.15 -0.0500003 0.00109989
0.1625 -0.0500003 0.00109989
0.175 -0.0500003 0.00109989
0.1875 -0.0500003 0.00109989
0.2 -0.0500003 0.00109989
0.2125 -0.0500003 0.00109989
0.225 -0.0500003 0.00109989
0.2375 -0.0500003 0.00109989
0.25 -0.0500003 0.00109989
0.2625 -0.0500003 0.00109988
0.275 -0.0500003 0.00109988
0.2875 -0.0500003 0.00109988
0.3 -0.0500003 0.00109988
0.3125 -0.0500003 0.00109988
0.325 -0.0500003 0.00109988
0.3375 -0.0500003 0.00109988
0.35 -0.0500003 0.00109988
0.3625 -0.0500003 0.00109988
0.375 -0.0500003 0.00109988
0.3875 -0.0500003 0.00109988
0.4 -0.0500004 0.00109988
0.4125 -0.0500004 0.00109988
0.425 -0.0500004 0.00109988
0.4375 -0.0500004 0.00109988
0.45 -0.0500004 0.00109988
0.4625 -0.0500004 0.00109988
0.475 -0.0500004 0.00109988
0.4875 -0.0500004 0.00109988
0.5 -0.0500004 0.00109988
0.5125 -0.0500004 0.00109988
0.525 -0.0500004 0.00109988
0.5375 -0.0500004 0.00109988
0.55 -0.0500004 0.00109988
0.5625 -0.0500004 0.00109988
0.575 -0.0500004 0.00109987
0.5875 -0.0500004 0.00109987
0.6 -0.0500004 0.00109987
0.6125 -0.0500004 0.00109987
0.625 -0.0500004 0.00109987
0.6375 -0.0500004 0.00109987
0.65 -0.0500004 0.00109987
0.6625 -0.0500004 0.00109987
0.675 -0.0500004 0.00109987
0.6875 -0.0500004 0.00109987
0.7 -0.0500004 0.00109987
0.7125 -0.0500004 0.00109987
0.725 -0.0500004 0.00109987
0.7375 -0.0500004 0.00109987
0.75 -0.0500004 0.00109987
0.7625 -0.0500004 0.00109987
0.775 -0.0500004 0.00109987
0.7875 -0.0500004 0.00109987
0.8 -0.0500004 0.00109987
0.8125 -0.0500004 0.00109987
0.825 -0.0500004 0.00109987
0.8375 -0.0500004 0.00109987
0.85 -0.0500004 0.00109987
0.8625 -0.0500004 0.00109987
0.875 -0.0500004 0.00109987
0.8875 -0.0500004 0.00109987
0.9 -0.0500004 0.00109987
0.9125 -0.0500005 0.00109988
0.925 -0.0500005 0.00109988
0.9375 -0.0500005 0.00109988
0.95 -0.0500005 0.00109988
0.9625 -0.0500005 0.00109988
0.975 -0.0500005 0.00109988
0.9875 -0.0500005 0.00109988
1 -0.0500005 0.00109988
1.0125 -0.0500005 0.00109988
1.025 -0.0500005 0.00109988
1.0375 -0.0500005 0.00109988
1.05 -0.0500005 0.00109988
1.0625 -0.0500005 0.00109988
1.075 -0.0500005 0.00109988
1.0875 -0.0500005 0.00109988
1.1 -0.0500005 0.00109988
1.1125 -0.0500005 0.00109988
1.125 -0.0500005 0.00109988
1.1375 -0.0500005 0.00109988
1.15 -0.0500005 0.00109988
1.1625 -0.0500005 0.00109988
1.175 -0.0500005 0.00109988
1.1875 -0.0500005 0.00109988
1.2 -0.0500005 0.00109988
1.2125 -0.0500005 0.00109988
1.225 -0.0500005 0.00109988
1.2375 -0.0500005 0.00109989
1.25 -0.0500005 0.00109989
1.2625 -0.0500005 0.00109989
1.275 -0.0500005 0.00109989
1.2875 -0.0500005 0.00109989
1.3 -0.0500005 0.00109989
1.3125 -0.0500005 0.00109989
1.325 -0.0500005 0.00109989
1.3375 -0.0500005 0.00109989
1.35 -0.0500005 0.00109989
1.3625 -0.0500005 0.00109989
1.375 -0.0500005 0.00109989
1.3875 -0.0500005 0.00109989
1.4 -0.0500005 0.00109989
1.4125 -0.0500005 0.00109989
1.425 -0.0500005 0.00109989
1.4375 -0.0500005 0.0010999
1.45 -0.0500005 0.0010999
1.4625 -0.0500005 0.0010999
1.475 -0.0500005 0.0010999
1.4875 -0.0500005 0.0010999
1.5 -0.0500006 0.0010999
1.5125 -0.0500006 0.0010999
1.525 -0.0500006 0.0010999
1.5375 -0.0500006 0.0010999
1.55 -0.0500006 0.0010999
1.5625 -0.0500006 0.0010999
1.575 -0.0500006 0.0010999
1.5875 -0.0500006 0.0010999
1.6 -0.0500006 0.0010999
1.6125 -0.0500006 0.00109991
1.625 -0.0500006 0.00109991
1.6375 -0.0500006 0.00109991
1.65 -0.0500006 0.00109991
1.6625 -0.0500006 0.00109991
1.675 -0.0500006 0.00109991
1.6875 -0.0500006 0.00109991
1.7 -0.0500006 0.00109991
1.7125 -0.0500006 0.00109991
1.725 -0.0500006 0.00109991
1.7375 -0.0500006 0.00109991
1.75 -0.0500006 0.00109991
1.7625 -0.0500006 0.00109992
1.775 -0.0500006 0.00109992
1.7875 -0.0500006 0.00109992
1.8 -0.0500006 0.00109992
1.8125 -0.0500006 0.00109992
1.825 -0.0500006 0.00109992
1.8375 -0.0500006 0.00109992
1.85 -0.0500006 0.00109992
1.8625 -0.0500006 0.00109992
1.875 -0.0500006 0.00109992
1.8875 -0.0500006 0.00109992
1.9 -0.0500006 0.00109992
1.9125 -0.0500006 0.00109993
1.925 -0.0500006 0.00109993
1.9375 -0.0500006 0.00109993
1.95 -0.0500006 0.00109993
1.9625 -0.0500006 0.00109993
1.975 -0.0500006 0.00109993
1.9875 -0.0500006 0.00109993
2 -0.0500006 0.00109993
2.0125 -0.0500006 0.00109993
2.025 -0.0500006 0.00109993
2.0375 -0.0500006 0.00109993
2.05 -0.0500006 0.00109993
2.0625 -0.0500006 0.00109993
2.075 -0.0500006 0.00109994
2.0875 -0.0500006 0.00109994
2.1 -0.0500006 0.00109994
2.1125 -0.0500006 0.00109994
2.125 -0.0500006 0.00109994
2.1375 -0.0500006 0.00109994
2.15 -0.0500006 0.00109994
2.1625 -0.0500006 0.00109994
2.175 -0.0500007 0.00109994
2.1875 -0.0500007 0.00109994
2.2 -0.0500007 0.00109994
2.2125 -0.0500007 0.00109994
2.225 -0.0500007 0.00109995
2.2375 -0.0500007 0.00109995
2.25 -0.0500007 0.00109995
2.2625 -0.0500007 0.00109995
2.275 -0.0500007 0.00109995
2.2875 -0.0500007 0.00109995
2.3 -0.0500007 0.00109995
2.3125 -0.0500007 0.00109995
2.325 -0.0500007 0.00109995
2.3375 -0.0500007 0.00109995
2.35 -0.0500007 0.00109995
2.3625 -0.0500007 0.00109995
2.375 -0.0500007 0.00109995
2.3875 -0.0500007 0.00109996
2.4 -0.0500007 0.00109996
2.4125 -0.0500007 0.00109996
2.425 -0.0500007 0.00109996
2.4375 -0.0500007 0.00109996
2.45 -0.0500007 0.00109996
2.4625 -0.0500007 0.00109996
2.475 -0.0500007 0.00109996
2.4875 -0.0500007 0.00109996
2.5 -0.0500007 0.00109996
2.5125 -0.0500007 0.00109996
2.525 -0.0500007 0.00109996
2.5375 -0.0500007 0.00109996
2.55 -0.0500007 0.00109996
2.5625 -0.0500007 0.00109997
2.575 -0.0500007 0.00109997
2.5875 -0.0500007 0.00109997
2.6 -0.0500007 0.00109997
2.6125 -0.0500007 0.00109997
2.625 -0.0500007 0.00109997
2.6375 -0.0500007 0.00109997
2.65 -0.0500007 0.00109997
2.6625 -0.0500007 0.00109997
2.675 -0.0500007 0.00109997
2.6875 -0.0500007 0.00109997
2.7 -0.0500007 0.00109997
2.7125 -0.0500007 0.00109997
2.725 -0.0500007 0.00109997
2.7375 -0.0500007 0.00109997
2.75 -0.0500007 0.00109997
2.7625 -0.0500007 0.00109998
2.775 -0.0500007 0.00109998
2.7875 -0.0500007 0.00109998
2.8 -0.0500007 0.00109998
2.8125 -0.0500007 0.00109998
2.825 -0.0500007 0.00109998
2.8375 -0.0500007 0.00109998
2.85 -0.0500007 0.00109998
2.8625 -0.0500008 0.00109998
2.875 -0.0500008 0.00109998
2.8875 -0.0500008 0.00109998
2.9 -0.0500008 0.00109998
2.9125 -0.0500008 0.00109998
2.925 -0.0500008 0.00109998
2.9375 -0.0500008 0.00109998
2.95 -0.0500008 0.00109998
2.9625 -0.0500008 0.00109998
2.975 -0.0500008 0.00109998
2.9875 -0.0500008 0.00109998
3 -0.0500008 0.00109998
3.0125 -0.0500008 0.00109999
3.025 -0.0500008 0.00109999
3.0375 -0.0500008 0.00109999
3.05 -0.0500008 0.00109999
3.0625 -0.0500008 0.00109999
3.075 -0.0500008 0.00109999
3.0875 -0.0500008 0.00109999
3.1 -0.0500008 0.00109999
3.1125 -0.0500008 0.00109999
3.125 -0.0500008 0.00109999
3.1375 -0.0500008 0.00109999
3.15 -0.0500008 0.00109999
3.1625 -0.0500008 0.00109999
3.175 -0.0500008 0.00109999
3.1875 -0.0500008 0.00109999
3.2 -0.0500008 0.00109999
3.2125 -0.0500008 0.00109999
3.225 -0.0500008 0.00109999
3.2375 -0.0500008 0.00109999
3.25 -0.0500008 0.00109999
3.2625 -0.0500008 0.00109999
3.275 -0.0500008 0.00109999
3.2875 -0.0500008 0.00109999
3.3 -0.0500008 0.00109999
3.3125 -0.0500008 0.00109999
3.325 -0.0500008 0.00109999
3.3375 -0.0500008 0.00109999
3.35 -0.0500008 0.0011
3.3625 -0.0500008 0.0011
[...]
POINT_DATA 15780
 FIELD attributes 1
U 3 15780 float
30.0002 	-7.01785e-06 	-6.30587e-06 30.0002 	-6.84336e-06 	-6.51454e-06 30.0002 	-6.66887e-06 	-6.72321e-06 30.0002 	-6.49438e-06 	-6.93187e-06 30.0002 	-6.3199e-06 	-7.14054e-06 30.0002 	-6.14541e-06 	-7.34921e-06 30.0004 	-1.2385e-05 	-1.261e-06 30.0004 	-1.2385e-05 	-1.261e-06 30.0004 	-1.2385e-05 	-1.261e-06 30.0004 	-1.2385e-05 	-1.261e-06 30.0002 	-7.04464e-08 	-6.84367e-06 30.0005 	-1.07089e-05 	-1.68705e-06 30.0005 	-1.07089e-05 	-1.68704e-06 30.0005 	-1.07089e-05 	-1.68704e-06 30.0005 	-1.07089e-05 	-1.68704e-06 30.0002 	-7.21158e-08 	-6.59608e-06 30.0005 	-9.95833e-06 	-2.08022e-06 30.0005 	-9.95833e-06 	-2.08022e-06 30.0005 	-9.95832e-06 	-2.08022e-06 30.0005 	-9.95831e-06 	-2.08022e-06 30.0003 	-4.593e-06 	-6.24726e-06 30.0005 	-9.69155e-06 	-2.34895e-06 30.0005 	-9.69154e-06 	-2.34894e-06 30.0005 	-9.69153e-06 	-2.34894e-06 30.0005 	-9.69152e-06 	-2.34894e-06 30.0003 	-7.56818e-08 	-6.57615e-06 30.0005 	-9.52332e-06 	-2.49781e-06 30.0005 	-9.52331e-06 	-2.49781e-06 30.0005 	-9.5233e-06 	-2.49781e-06 30.0005 	-9.52329e-06 	-2.49781e-06 30.0003 	-7.74229e-08 	-6.52626e-06 30.0005 	-9.38694e-06 	-2.55605e-06 30.0005 	-9.38693e-06 	-2.55605e-06 30.0005 	-9.38692e-06 	-2.55605e-06 30.0005 	-9.38691e-06 	-2.55605e-06 30.0003 	-4.26677e-06 	-6.08528e-06 30.0005 	-9.2795e-06 	-2.55828e-06 30.0005 	-9.2795e-06 	-2.55828e-06 30.0005 	-9.27949e-06 	-2.55827e-06 30.0005 	-9.27948e-06 	-2.55827e-06 30.0003 	-4.19915e-06 	-5.97789e-06 30.0006 	-9.18726e-06 	-2.53041e-06 30.0006 	-9.18725e-06 	-2.53041e-06 30.0006 	-9.18724e-06 	-2.53041e-06 30.0006 	-9.18723e-06 	-2.53041e-06 30.0003 	-8.26763e-08 	-6.20126e-06 30.0006 	-9.09716e-06 	-2.48117e-06 30.0006 	-9.09715e-06 	-2.48116e-06 30.0006 	-9.09715e-06 	-2.48116e-06 30.0006 	-9.09714e-06 	-2.48116e-06 30.0003 	-8.44169e-08 	-6.05423e-06 30.0006 	-9.00469e-06 	-2.41359e-06 30.0006 	-9.00468e-06 	-2.41359e-06 30.0006 	-9.00468e-06 	-2.41359e-06 30.0006 	-9.00467e-06 	-2.41359e-06 30.0003 	-8.61652e-08 	-5.88782e-06 30.0006 	-8.90854e-06 	-2.32971e-06 30.0006 	-8.90853e-06 	-2.32971e-06 30.0006 	-8.90852e-06 	-2.32971e-06 30.0006 	-8.90851e-06 	-2.32971e-06 30.0003 	-3.93769e-06 	-5.36347e-06 30.0006 	-8.80849e-06 	-2.23273e-06 30.0006 	-8.80848e-06 	-2.23273e-06 30.0006 	-8.80847e-06 	-2.23273e-06 30.0006 	-8.80846e-06 	-2.23273e-06 30.0003 	-3.8639e-06 	-5.16476e-06 30.0006 	-8.70417e-06 	-2.12413e-06 30.0006 	-8.70416e-06 	-2.12413e-06 30.0006 	-8.70416e-06 	-2.12413e-06 30.0006 	-8.70415e-06 	-2.12413e-06 30.0003 	-9.14012e-08 	-5.28458e-06 30.0006 	-8.59597e-06 	-2.00507e-06 30.0006 	-8.59596e-06 	-2.00507e-06 30.0006 	-8.59596e-06 	-2.00507e-06 30.0006 	-8.59595e-06 	-2.00507e-06 30.0003 	-3.70427e-06 	-4.7194e-06 30.0007 	-8.4846e-06 	-1.87668e-06 30.0007 	-8.48459e-06 	-1.87667e-06 30.0007 	-8.48458e-06 	-1.87667e-06 30.0007 	-8.48458e-06 	-1.87667e-06 30.0003 	-3.61918e-06 	-4.47432e-06 30.0007 	-8.37125e-06 	-1.73884e-06 30.0007 	-8.37124e-06 	-1.73884e-06 30.0007 	-8.37124e-06 	-1.73883e-06 30.0007 	-8.37123e-06 	-1.73883e-06 30.0004 	-9.66299e-08 	-4.5432e-06 30.0007 	-8.25968e-06 	-1.59804e-06 30.0007 	-8.25968e-06 	-1.59803e-06 30.0007 	-8.25967e-06 	-1.59803e-06 30.0007 	-8.25967e-06 	-1.59803e-06 30.0004 	-9.83749e-08 	-4.27125e-06 30.0007 	-8.14769e-06 	-1.46324e-06 30.0007 	-8.14768e-06 	-1.46324e-06 30.0007 	-8.14768e-06 	-1.46324e-06 30.0007 	-8.14767e-06 	-1.46323e-06 30.0004 	-1.00116e-07 	-3.98928e-06 30.0007 	-8.01962e-06 	-1.32073e-06 30.0007 	-8.01962e-06 	-1.32073e-06 30.0007 	-8.01962e-06 	-1.32073e-06 30.0007 	-8.01961e-06 	-1.32073e-06 30.0004 	-3.25085e-06 	-3.37796e-06 30.0007 	-7.88084e-06 	-1.16801e-06 30.0007 	-7.88083e-06 	-1.16801e-06 30.0007 	-7.88083e-06 	-1.16801e-06 30.0007 	-7.88083e-06 	-1.16801e-06 30.0004 	-1.03557e-07 	-3.4029e-06 30.0007 	-7.74492e-06 	-1.00789e-06 30.0007 	-7.74492e-06 	-1.00789e-06 30.0007 	-7.74492e-06 	-1.00789e-06 30.0007 	-7.74491e-06 	-1.00789e-06 30.0004 	-1.05278e-07 	-3.10329e-06 30.0007 	-7.61079e-06 	-8.41875e-07 30.0007 	-7.61079e-06 	-8.41875e-07 30.0007 	-7.61079e-06 	-8.41875e-07 30.0007 	-7.61078e-06 	-8.41875e-07 30.0004 	-2.9317e-06 	-2.4879e-06 30.0007 	-7.47502e-06 	-6.70226e-07 30.0007 	-7.47502e-06 	-6.70226e-07 30.0007 	-7.47502e-06 	-6.70226e-07 30.0007 	-7.47502e-06 	-6.70226e-07 30.0004 	-2.82524e-06 	-2.18314e-06 30.0007 	-7.34291e-06 	-4.97074e-07 30.0007 	-7.34291e-06 	-4.97074e-07 30.0007 	-7.34291e-06 	-4.97074e-07 30.0007 	-7.3429e-06 	-4.97074e-07 30.0004 	-1.10383e-07 	-2.17113e-06 30.0007 	-7.21512e-06 	-3.17349e-07 30.0007 	-7.21512e-06 	-3.17349e-07 30.0007 	-7.21512e-06 	-3.17349e-07 30.0007 	-7.21512e-06 	-3.17349e-07 30.0004 	-1.12068e-07 	-1.85339e-06 30.0007 	-7.09839e-06 	-1.38246e-07 30.0007 	-7.09839e-06 	-1.38246e-07 30.0007 	-7.09839e-06 	-1.38246e-07 30.0007 	-7.09839e-06 	-1.38246e-07 30.0004 	-1.13733e-07 	-1.54905e-06 30.0007 	-6.98507e-06 	4.08214e-08 30.0007 	-6.98507e-06 	4.08214e-08 30.0007 	-6.98507e-06 	4.08214e-08 30.0007 	-6.98507e-06 	4.08214e-08 30.0004 	-2.43883e-06 	-9.58527e-07 30.0007 	-6.87148e-06 	2.14633e-07 30.0007 	-6.87148e-06 	2.14633e-07 30.0007 	-6.87148e-06 	2.14633e-07 30.0007 	-6.87148e-06 	2.14633e-07 30.0004 	-2.34723e-06 	-6.82326e-07 30.0007 	-6.75337e-06 	3.90683e-07 30.0007 	-6.75337e-06 	3.90683e-07 30.0007 	-6.75337e-06 	3.90683e-07 30.0007 	-6.75337e-06 	3.90683e-07 30.0004 	-1.1873e-07 	-7.09805e-07 30.0007 	-6.64289e-06 	5.64337e-07 30.0007 	-6.64289e-06 	5.64337e-07 30.0007 	-6.64289e-06 	5.64337e-07 30.0007 	-6.64289e-06 	5.64337e-07 30.0004 	-2.16692e-06 	-1.45468e-07 30.0007 	-6.53592e-06 	7.27362e-07 30.0007 	-6.53592e-06 	7.27363e-07 30.0007 	-6.53592e-06 	7.27363e-07 30.0007 	-6.53592e-06 	7.27363e-07 30.0004 	-2.08126e-06 	1.13808e-07 30.0007 	-6.43062e-06 	8.788e-07 30.0007 	-6.43062e-06 	8.788e-07 30.0007 	-6.43063e-06 	8.788e-07 30.0007 	-6.43063e-06 	8.78801e-07 30.0004 	-1.23668e-07 	7.05411e-08 30.0007 	-6.32308e-06 	1.01776e-06 30.0007 	-6.32308e-06 	1.01776e-06 30.0007 	-6.32308e-06 	1.01776e-06 30.0007 	-6.32309e-06 	1.01776e-06 30.0004 	-1.25265e-07 	3.15772e-07 30.0007 	-6.21671e-06 	1.14059e-06 30.0007 	-6.21671e-06 	1.14059e-06 30.0007 	-6.21672e-06 	1.14059e-06 30.0007 	-6.21672e-06 	1.14059e-06 30.0004 	-1.26852e-07 	5.45492e-07 30.0007 	-6.11545e-06 	1.25629e-06 30.0007 	-6.11545e-06 	1.25629e-06 30.0007 	-6.11546e-06 	1.25629e-06 30.0007 	-6.11546e-06 	1.25629e-06 30.0004 	-1.76446e-06 	1.03205e-06 30.0007 	-6.02272e-06 	1.37124e-06 30.0007 	-6.02273e-06 	1.37124e-06 30.0007 	-6.02273e-06 	1.37124e-06 30.0007 	-6.02273e-06 	1.37124e-06 30.0004 	-1.29956e-07 	9.36911e-07 30.0007 	-5.94306e-06 	1.48847e-06 30.0007 	-5.94306e-06 	1.48847e-06 30.0007 	-5.94307e-06 	1.48847e-06 30.0007 	-5.94307e-06 	1.48847e-06 30.0004 	-1.31456e-07 	1.10453e-06 30.0007 	-5.87183e-06 	1.59285e-06 30.0007 	-5.87183e-06 	1.59286e-06 30.0007 	-5.87184e-06 	1.59286e-06 30.0007 	-5.87184e-06 	1.59286e-06 30.0004 	-1.59156e-06 	1.53874e-06 30.0007 	-5.8022e-06 	1.67928e-06 30.0007 	-5.8022e-06 	1.67928e-06 30.0007 	-5.80221e-06 	1.67928e-06 30.0007 	-5.80221e-06 	1.67928e-06 30.0003 	-1.54434e-06 	1.67819e-06 30.0007 	-5.73413e-06 	1.75008e-06 30.0007 	-5.73414e-06 	1.75008e-06 30.0007 	-5.73414e-06 	1.75008e-06 30.0007 	-5.73414e-06 	1.75008e-06 30.0003 	-1.36132e-07 	1.52469e-06 30.0006 	-5.66897e-06 	1.80978e-06 30.0006 	-5.66898e-06 	1.80978e-06 30.0006 	-5.66898e-06 	1.80978e-06 30.0006 	-5.66899e-06 	1.80978e-06 30.0003 	-1.37668e-07 	1.63224e-06 30.0006 	-5.60887e-06 	1.85991e-06 30.0006 	-5.60887e-06 	1.85991e-06 30.0006 	-5.60887e-06 	1.85991e-06 30.0006 	-5.60888e-06 	1.85992e-06 30.0003 	-1.39117e-07 	1.72397e-06 30.0006 	-5.55454e-06 	1.90041e-06 30.0006 	-5.55454e-06 	1.90041e-06 30.0006 	-5.55454e-06 	1.90041e-06 30.0006 	-5.55455e-06 	1.90041e-06 30.0003 	-1.38895e-06 	2.07101e-06 30.0006 	-5.50566e-06 	1.93106e-06 30.0006 	-5.50567e-06 	1.93107e-06 30.0006 	-5.50567e-06 	1.93107e-06 30.0006 	-5.50567e-06 	1.93107e-06 30.0003 	-1.3619e-06 	2.13094e-06 30.0006 	-5.46188e-06 	1.9518e-06 30.0006 	-5.46188e-06 	1.9518e-06 30.0006 	-5.46189e-06 	1.9518e-06 30.0006 	-5.46189e-06 	1.9518e-06 30.0003 	-1.43067e-07 	1.90823e-06 30.0006 	-5.42301e-06 	1.96274e-06 30.0006 	-5.42302e-06 	1.96275e-06 30.0006 	-5.42302e-06 	1.96275e-06 30.0006 	-5.42303e-06 	1.96275e-06 30.0003 	-1.32346e-06 	2.20764e-06 30.0006 	-5.38901e-06 	1.96427e-06 30.0006 	-5.38902e-06 	1.96427e-06 30.0006 	-5.38902e-06 	1.96427e-06 30.0006 	-5.38903e-06 	1.96428e-06 30.0003 	-1.31167e-06 	2.22552e-06 30.0006 	-5.35978e-06 	1.95687e-06 30.0006 	-5.35979e-06 	1.95687e-06 30.0006 	-5.35979e-06 	1.95687e-06 30.0006 	-5.35979e-06 	1.95687e-06 30.0003 	-1.46847e-07 	1.96614e-06 30.0005 	-5.33522e-06 	1.94106e-06 30.0005 	-5.33523e-06 	1.94107e-06 30.0005 	-5.33523e-06 	1.94107e-06 30.0005 	-5.33524e-06 	1.94107e-06 30.0003 	-1.48061e-07 	1.96054e-06 30.0005 	-5.31518e-06 	1.91787e-06 30.0005 	-5.31518e-06 	1.91787e-06 30.0005 	-5.31519e-06 	1.91787e-06 30.0005 	-5.31519e-06 	1.91788e-06 30.0003 	-1.49256e-07 	1.94421e-06 30.0005 	-5.29954e-06 	1.88793e-06 30.0005 	-5.29955e-06 	1.88794e-06 30.0005 	-5.29955e-06 	1.88794e-06 30.0005 	-5.29956e-06 	1.88794e-06 30.0003 	-1.30902e-06 	2.17897e-06 30.0005 	-5.28816e-06 	1.85183e-06 30.0005 	-5.28816e-06 	1.85184e-06 30.0005 	-5.28817e-06 	1.85184e-06 30.0005 	-5.28817e-06 	1.85184e-06 30.0003 	-1.51562e-07 	1.88226e-06 30.0005 	-5.28083e-06 	1.81001e-06 30.0005 	-5.28084e-06 	1.81001e-06 30.0005 	-5.28084e-06 	1.81001e-06 30.0005 	-5.28084e-06 	1.81001e-06 30.0003 	-1.52662e-07 	1.83814e-06 30.0005 	-5.27735e-06 	1.76308e-06 30.0005 	-5.27735e-06 	1.76309e-06 30.0005 	-5.27735e-06 	1.76309e-06 30.0005 	-5.27736e-06 	1.76309e-06 30.0003 	-1.34819e-06 	2.04405e-06 30.0005 	-5.27747e-06 	1.71154e-06 30.0005 	-5.27748e-06 	1.71154e-06 30.0005 	-5.27748e-06 	1.71154e-06 30.0005 	-5.27748e-06 	1.71155e-06 30.0003 	-1.36824e-06 	1.98421e-06 30.0005 	-5.281e-06 	1.65591e-06 30.0005 	-5.281e-06 	1.65591e-06 30.0005 	-5.281e-06 	1.65591e-06 30.0005 	-5.28101e-06 	1.65591e-06 30.0002 	-1.55819e-07 	1.66277e-06 30.0005 	-5.28776e-06 	1.59659e-06 30.0005 	-5.28776e-06 	1.59659e-06 30.0005 	-5.28776e-06 	1.59659e-06 30.0005 	-5.28776e-06 	1.59659e-06 30.0002 	-1.56858e-07 	1.59252e-06 30.0004 	-5.29768e-06 	1.53407e-06 30.0004 	-5.29768e-06 	1.53407e-06 30.0004 	-5.29768e-06 	1.53407e-06 30.0004 	-5.29769e-06 	1.53407e-06 30.0002 	-1.57923e-07 	1.51765e-06 30.0004 	-5.31059e-06 	1.4688e-06 30.0004 	-5.31059e-06 	1.4688e-06 30.0004 	-5.3106e-06 	1.4688e-06 30.0004 	-5.3106e-06 	1.4688e-06 30.0002 	-1.47986e-06 	1.69059e-06 30.0004 	-5.3261e-06 	1.40134e-06 30.0004 	-5.32611e-06 	1.40135e-06 30.0004 	-5.32611e-06 	1.40135e-06 30.0004 	-5.32611e-06 	1.40135e-06 30.0002 	-1.51437e-06 	1.6071e-06 30.0004 	-5.34397e-06 	1.33209e-06 30.0004 	-5.34397e-06 	1.3321e-06 30.0004 	-5.34397e-06 	1.3321e-06 30.0004 	-5.34398e-06 	1.3321e-06 30.0002 	-1.61136e-07 	1.27183e-06 30.0004 	-5.36395e-06 	1.26138e-06 30.0004 	-5.36395e-06 	1.26138e-06 30.0004 	-5.36395e-06 	1.26139e-06 30.0004 	-5.36396e-06 	1.26139e-06 30.0002 	-1.58969e-06 	1.43247e-06 30.0004 	-5.38575e-06 	1.18971e-06 30.0004 	-5.38575e-06 	1.18971e-06 30.0004 	-5.38575e-06 	1.18971e-06 30.0004 	-5.38576e-06 	1.18971e-06 30.0002 	-1.63017e-06 	1.34239e-06 30.0004 	-5.40934e-06 	1.11738e-06 30.0004 	-5.40935e-06 	1.11738e-06 30.0004 	-5.40935e-06 	1.11738e-06 30.0004 	-5.40935e-06 	1.11738e-06 30.0002 	-1.64143e-07 	1.00604e-06 30.0004 	-5.43449e-06 	1.0447e-06 30.0004 	-5.43449e-06 	1.04471e-06 30.0004 	-5.43449e-06 	1.04471e-06 30.0004 	-5.43449e-06 	1.04471e-06 30.0002 	-1.65093e-07 	9.15568e-07 30.0004 	-5.46012e-06 	9.72172e-07 30.0004 	-5.46012e-06 	9.72172e-07 30.0004 	-5.46012e-06 	9.72172e-07 30.0004 	-5.46012e-06 	9.72173e-07 30.0002 	-1.65995e-07 	8.24945e-07 30.0004 	-5.48614e-06 	8.99392e-07 30.0004 	-5.48614e-06 	8.99392e-07 30.0004 	-5.48614e-06 	8.99393e-07 30.0004 	-5.48614e-06 	8.99393e-07 30.0002 	-1.80707e-06 	9.75401e-07 30.0004 	-5.5129e-06 	8.25863e-07 30.0004 	-5.5129e-06 	8.25863e-07 30.0004 	-5.51291e-06 	8.25864e-07 30.0004 	-5.51291e-06 	8.25864e-07 30.0002 	-1.67691e-07 	6.43579e-07 30.0003 	-5.54265e-06 	7.51905e-07 30.0003 	-5.54265e-06 	7.51905e-07 30.0003 	-5.54265e-06 	7.51905e-07 30.0003 	-5.54265e-06 	7.51905e-07 30.0002 	-1.68529e-07 	5.52584e-07 30.0003 	-5.57712e-06 	6.77363e-07 30.0003 	-5.57712e-06 	6.77363e-07 30.0003 	-5.57712e-06 	6.77363e-07 30.0003 	-5.57712e-06 	6.77363e-07 30.0002 	-1.95543e-06 	7.01296e-07 30.0003 	-5.61396e-06 	6.04293e-07 30.0003 	-5.61396e-06 	6.04293e-07 30.0003 	-5.61396e-06 	6.04293e-07 30.0003 	-5.61396e-06 	6.04293e-07 30.0002 	-2.00762e-06 	6.11666e-07 30.0003 	-5.65008e-06 	5.34588e-07 30.0003 	-5.65008e-06 	5.34588e-07 30.0003 	-5.65008e-06 	5.34588e-07 30.0003 	-5.65009e-06 	5.34588e-07 30.0002 	-1.71023e-07 	2.80887e-07 30.0003 	-5.68119e-06 	4.6757e-07 30.0003 	-5.68119e-06 	4.6757e-07 30.0003 	-5.68119e-06 	4.6757e-07 30.0003 	-5.68119e-06 	4.6757e-07 30.0002 	-1.71855e-07 	1.97274e-07 30.0003 	-5.7096e-06 	4.03129e-07 30.0003 	-5.7096e-06 	4.03129e-07 30.0003 	-5.70961e-06 	4.03129e-07 30.0003 	-5.70961e-06 	4.03129e-07 30.0002 	-1.72652e-07 	1.16344e-07 30.0003 	-5.73777e-06 	3.39165e-07 30.0003 	-5.73777e-06 	3.39165e-07 30.0003 	-5.73777e-06 	3.39165e-07 30.0003 	-5.73777e-06 	3.39165e-07 30.0002 	-2.20089e-06 	2.74069e-07 30.0003 	-5.76574e-06 	2.75197e-07 30.0003 	-5.76574e-06 	2.75197e-07 30.0003 	-5.76574e-06 	2.75197e-07 30.0003 	-5.76574e-06 	2.75197e-07 30.0002 	-2.24782e-06 	1.96328e-07 30.0003 	-5.79255e-06 	2.10722e-07 30.0003 	-5.79255e-06 	2.10722e-07 30.0003 	-5.79255e-06 	2.10722e-07 30.0003 	-5.79255e-06 	2.10722e-07 30.0002 	-1.7485e-07 	-1.09197e-07 30.0003 	-5.82059e-06 	1.48727e-07 30.0003 	-5.82059e-06 	1.48727e-07 30.0003 	-5.82059e-06 	1.48727e-07 30.0003 	-5.82059e-06 	1.48727e-07 30.0002 	-2.34162e-06 	4.46457e-08 30.0003 	-5.84985e-06 	8.9932e-08 30.0003 	-5.84985e-06 	8.9932e-08 30.0003 	-5.84985e-06 	8.9932e-08 30.0003 	-5.84985e-06 	8.9932e-08 30.0002 	-2.38893e-06 	-2.91281e-08 30.0003 	-5.88027e-06 	3.47634e-08 30.0003 	-5.88027e-06 	3.47634e-08 30.0003 	-5.88027e-06 	3.47634e-08 30.0003 	-5.88027e-06 	3.47634e-08 30.0002 	-1.76885e-07 	-3.30821e-07 30.0003 	-5.91213e-06 	-1.71092e-08 30.0003 	-5.91213e-06 	-1.71092e-08 30.0003 	-5.91213e-06 	-1.71092e-08 30.0003 	-5.91213e-06 	-1.71092e-08 30.0002 	-1.77535e-07 	-4.01852e-07 30.0003 	-5.94525e-06 	-6.90841e-08 30.0003 	-5.94525e-06 	-6.90841e-08 30.0003 	-5.94525e-06 	-6.90841e-08 30.0003 	-5.94525e-06 	-6.90841e-08 30.0002 	-1.78141e-07 	-4.67122e-07 30.0003 	-5.97719e-06 	-1.23348e-07 30.0003 	-5.97719e-06 	-1.23348e-07 30.0003 	-5.97719e-06 	-1.23348e-07 30.0003 	-5.97719e-06 	-1.23348e-07 30.0002 	-2.58048e-06 	-3.01401e-07 30.0003 	-6.00496e-06 	-1.77988e-07 30.0003 	-6.00496e-06 	-1.77988e-07 30.0003 	-6.00496e-06 	-1.77988e-07 30.0003 	-6.00496e-06 	-1.77988e-07 30.0002 	-1.79326e-07 	-5.84929e-07 30.0003 	-6.02912e-06 	-2.29241e-07 30.0003 	-6.02912e-06 	-2.29241e-07 30.0003 	-6.02912e-06 	-2.29241e-07 30.0003 	-6.02912e-06 	-2.29241e-07 30.0002 	-1.79939e-07 	-6.42189e-07 30.0003 	-6.05236e-06 	-2.76202e-07 30.0003 	-6.05236e-06 	-2.76202e-07 30.0003 	-6.05236e-06 	-2.76202e-07 30.0003 	-6.05236e-06 	-2.76202e-07 30.0002 	-2.70853e-06 	-4.79003e-07 30.0003 	-6.07621e-06 	-3.19686e-07 30.0003 	-6.07621e-06 	-3.19686e-07 30.0003 	-6.07621e-06 	-3.19686e-07 30.0003 	-6.0762e-06 	-3.19686e-07 30.0002 	-2.74957e-06 	-5.34046e-07 30.0003 	-6.10054e-06 	-3.61207e-07 30.0003 	-6.10054e-06 	-3.61207e-07 30.0003 	-6.10054e-06 	-3.61207e-07 30.0003 	-6.10054e-06 	-3.61207e-07 30.0002 	-1.81687e-07 	-8.03824e-07 30.0003 	-6.12458e-06 	-4.01401e-07 30.0003 	-6.12458e-06 	-4.01401e-07 30.0003 	-6.12458e-06 	-4.01401e-07 30.0003 	-6.12458e-06 	-4.01401e-07 30.0001 	-1.82231e-07 	-8.53141e-07 30.0003 	-6.14796e-06 	-4.40393e-07 30.0003 	-6.14796e-06 	-4.40393e-07 30.0003 	-6.14796e-06 	-4.40393e-07 30.0003 	-6.14796e-06 	-4.40393e-07 30.0001 	-1.82757e-07 	-9.00349e-07 30.0003 	-6.1706e-06 	-4.78018e-07 30.0003 	-6.1706e-06 	-4.78017e-07 30.0003 	-6.1706e-06 	-4.78017e-07 30.0003 	-6.1706e-06 	-4.78017e-07 30.0001 	-2.90906e-06 	-7.31475e-07 30.0003 	-6.19238e-06 	-5.14233e-07 30.0003 	-6.19238e-06 	-5.14233e-07 30.0003 	-6.19238e-06 	-5.14233e-07 30.0003 	-6.19238e-06 	-5.14233e-07 30.0001 	-2.94694e-06 	-7.75601e-07 30.0003 	-6.21338e-06 	-5.48848e-07 30.0003 	-6.21338e-06 	-5.48848e-07 30.0003 	-6.21338e-06 	-5.48848e-07 30.0003 	-6.21338e-06 	-5.48848e-07 30.0001 	-1.84288e-07 	-1.02955e-06 30.0003 	-6.23352e-06 	-5.82057e-07 30.0003 	-6.23352e-06 	-5.82057e-07 30.0003 	-6.23352e-06 	-5.82057e-07 30.0003 	-6.23352e-06 	-5.82057e-07 30.0001 	-3.01995e-06 	-8.57487e-07 30.0003 	-6.25278e-06 	-6.13902e-07 30.0003 	-6.25278e-06 	-6.13902e-07 30.0003 	-6.25278e-06 	-6.13902e-07 30.0003 	-6.25278e-06 	-6.13902e-07 30.0001 	-3.05504e-06 	-8.95494e-07 30.0003 	-6.27128e-06 	-6.44428e-07 30.0003 	-6.27128e-06 	-6.44427e-07 30.0003 	-6.27127e-06 	-6.44427e-07 30.0003 	-6.27127e-06 	-6.44427e-07 30.0001 	-1.85726e-07 	-1.14086e-06 30.0003 	-6.28913e-06 	-6.73626e-07 30.0003 	-6.28913e-06 	-6.73626e-07 30.0003 	-6.28913e-06 	-6.73626e-07 30.0003 	-6.28912e-06 	-6.73625e-07 30.0001 	-1.86197e-07 	-1.17461e-06 30.0003 	-6.30614e-06 	-7.01443e-07 30.0003 	-6.30614e-06 	-7.01443e-07 30.0003 	-6.30614e-06 	-7.01442e-07 30.0003 	-6.30613e-06 	-7.01442e-07 30.0001 	-1.86646e-07 	-1.2067e-06 30.0003 	-6.32222e-06 	-7.27878e-07 30.0003 	-6.32222e-06 	-7.27878e-07 30.0003 	-6.32222e-06 	-7.27877e-07 30.0003 	-6.32221e-06 	-7.27877e-07 30.0001 	-3.18651e-06 	-1.03102e-06 30.0003 	-6.33748e-06 	-7.52987e-07 30.0003 	-6.33747e-06 	-7.52987e-07 30.0003 	-6.33747e-06 	-7.52987e-07 30.0003 	-6.33747e-06 	-7.52986e-07 30.0001 	-1.87511e-07 	-1.26598e-06 30.0003 	-6.35201e-06 	-7.76954e-07 30.0003 	-6.35201e-06 	-7.76954e-07 30.0003 	-6.35201e-06 	-7.76954e-07 30.0003 	-6.35201e-06 	-7.76954e-07 30.0001 	-1.8794e-07 	-1.29333e-06 30.0003 	-6.36582e-06 	-7.99826e-07 30.0003 	-6.36582e-06 	-7.99826e-07 30.0003 	-6.36581e-06 	-7.99825e-07 30.0003 	-6.36581e-06 	-7.99825e-07 30.0001 	-3.27592e-06 	-1.11606e-06 30.0003 	-6.37889e-06 	-8.21558e-07 30.0003 	-6.37889e-06 	-8.21558e-07 30.0003 	-6.37889e-06 	-8.21558e-07 30.0003 	-6.37888e-06 	-8.21558e-07 30.0001 	-3.30404e-06 	-1.14154e-06 30.0003 	-6.39127e-06 	-8.41989e-07 30.0003 	-6.39127e-06 	-8.41989e-07 30.0003 	-6.39127e-06 	-8.41989e-07 30.0003 	-6.39126e-06 	-8.41988e-07 30.0001 	-1.8915e-07 	-1.36688e-06 30.0003 	-6.40291e-06 	-8.61384e-07 30.0003 	-6.4029e-06 	-8.61384e-07 30.0003 	-6.4029e-06 	-8.61384e-07 30.0003 	-6.4029e-06 	-8.61383e-07 30.0001 	-1.89538e-07 	-1.38875e-06 30.0003 	-6.41384e-06 	-8.79823e-07 30.0003 	-6.41384e-06 	-8.79823e-07 30.0003 	-6.41383e-06 	-8.79822e-07 30.0003 	-6.41383e-06 	-8.79822e-07 30.0001 	-1.89917e-07 	-1.4094e-06 30.0003 	-6.42408e-06 	-8.97312e-07 30.0003 	-6.42408e-06 	-8.97311e-07 30.0003 	-6.42408e-06 	-8.97311e-07 30.0003 	-6.42407e-06 	-8.97311e-07 30.0001 	-3.40839e-06 	-1.23054e-06 30.0003 	-6.43365e-06 	-9.13898e-07 30.0003 	-6.43365e-06 	-9.13898e-07 30.0003 	-6.43364e-06 	-9.13897e-07 30.0003 	-6.43364e-06 	-9.13897e-07 30.0001 	-3.43253e-06 	-1.24986e-06 30.0003 	-6.44264e-06 	-9.29581e-07 30.0003 	-6.44264e-06 	-9.2958e-07 30.0003 	-6.44264e-06 	-9.2958e-07 30.0003 	-6.44263e-06 	-9.2958e-07 30.0001 	-1.91057e-07 	-1.46456e-06 30.0003 	-6.45098e-06 	-9.4443e-07 30.0003 	-6.45098e-06 	-9.44429e-07 30.0003 	-6.45097e-06 	-9.44429e-07 30.0003 	-6.45097e-06 	-9.44429e-07 30.0001 	-3.47866e-06 	-1.28535e-06 30.0003 	-6.45866e-06 	-9.58438e-07 30.0003 	-6.45866e-06 	-9.58438e-07 30.0003 	-6.45866e-06 	-9.58437e-07 30.0003 	-6.45865e-06 	-9.58437e-07 30.0001 	-3.50072e-06 	-1.30162e-06 30.0003 	-6.46576e-06 	-9.71731e-07 30.0003 	-6.46575e-06 	-9.7173e-07 30.0003 	-6.46575e-06 	-9.7173