# vtk DataFile Version 2.0
sampleSurface
ASCII
DATASET POLYDATA
POINTS 9879 float
6 2.24045e-22 1 6 -4.23516e-22 0 5 0 0 5 4.23516e-22
0.5 5 5.02844e-23 1 7 1.69508e-17 0 6 2.40786e-23 1
7 -4.23516e-22 1 8 -1.0754e-16 0 8 4.23516e-22 1 9
-7.28995e-17 0 9 4.23516e-22 1 10 5.03714e-17 0 10 -4.23516e-22
1 11 -1.10109e-16 0 11 0 1 12 1.14673e-16 0
12 0 1 13 1.07357e-16 0 13 -2.11758e-22 1 14
-3.31971e-17 0 14 0 1 15 0 1 15 5.68977e-17
0 -5 -1.61559e-27 0 -5 1.61559e-27 0 -5 0 0.5
-5 8.07794e-28 0.5 -2.89285 0 0 -3.00033 0 0 -3.00033
-8.47033e-22 0.0932873 -1.00051 -1.01779e-17 0.124742 -0.875522 0 0.124691 -0.875461 -8.40257e-19
0 -1.00046 0 0 0.015625 1.94517e-24 2.2091e-05 5.35603e-05 -1.21492e-24 0.0155233
0.0156432 3.30872e-24 0.0155555 1.00057 -5.42101e-19 0.0152422 1.00056 0 0.0308735 1.03181
0 0.0308728 1.03183 -1.89735e-19 0 1.00058 0 0 2 1.21939e-17
0.125 2 2.01948e-28 0.25 2.25 0 0.25 2.25 -1.26744e-17 0
2 2.01948e-28 0 3 2.86199e-17 0.25 3 3.16479e-17 0.5 3.5
2.01948e-28 0.5 3.5 -1.71188e-17 0 3 2.01948e-28 0 4 0
0 4 0 0 4 5.4967e-18 0.5 4 1.00974e-28 0.5
6 2.52435e-29 1 5 0 1 6 2.96289e-24 1 5
3.35588e-25 2 6 4.23516e-22 2 7 4.23516e-22 2 8 0
2 9 -4.23516e-22 2 10 0 2 11 2.11758e-22 2
12 0 2 13 -2.11758e-22 2 14 0 2 15
2.11758e-22 2 -5 0 1 -5 0 1.5 -5 0
1.5 -5 0 1 -1.00051 0 1.00028 -1.0005 1.69407e-21 1.07098
-0.875582 -3.38813e-21 1.04431 -0.875573 0 1.00033 -0.000176494 0 1.00043 -0.000187004
1.35525e-18 1.03171 0.0310738 0 1.03178 0.0310423 5.42101e-20 1.0005 0.0154335 0
1.00047 2.25 0 1 2 5.03191e-18 1 2 -8.15581e-18 1.125
2 6.36148e-18 1.25 2.25 0 1.25 3.5 0 1 3
-7.24998e-18 1 3 -1.28933e-17 1.25 3 -3.74554e-18 1.5 3.5 0
1.5 4 0 1 4 2.0972e-17 1.5 4.50019 3.38813e-21 1.50011
4.50001 3.17637e-22 1.0073 4 -1.00974e-28 1 5 -4.34409e-17 1.5 5
-2.52435e-29 2 5 1.60269e-22 2 5 4.23516e-22 2.5 5 0
3 6 -4.23516e-22 3 7 4.23516e-22 3 8 4.23516e-22 3
9 0 3 10 0 3 11 -2.11758e-22 3 12
2.11758e-22 3 13 -2.11758e-22 3 14 2.11758e-22 3 15 0
3 -5 0 2 -5 0 2 -5 0 2
-0.750281 -2.71051e-20 2.0005 -0.996618 -5.0822e-21 2.00034 -0.884887 3.38813e-21 2.25032 -0.750178
-2.73083e-17 2.25039 0.124965 6.77626e-21 2.00046 0.0589837 -3.38813e-21 2.00046 0.102874 -1.69407e-21
2.25032 0.249982 -1.24887e-17 2.25032 0.249997 1.35525e-20 2.00047 1.0005 1.35525e-20 2.00056
1.00037 1.35525e-20 2.25063 1.25045 -1.35525e-20 2.25054 1.25043 -1.69813e-17 2.00047 1.12546
-1.35525e-20 2.00051 2.00018 3.38813e-21 2.00013 2.00027 1.07133e-17 2.25026 2.25027 6.77626e-21
2.25023 2.25017 6.77626e-21 2.00011 3.5 0 2 3.00014 -1.11944e-17 2.00005
3.00014 2.41235e-17 2.25008 3.00001 2.0117e-21 2.49701 3.5 0 2 4
-1.32349e-23 2 4.00001 0 2.00871 4.5 -3.02248e-22 2.5 4.5 2.52435e-29
2.5 4.50017 2.11758e-22 2.00014 -5 0 4 -4.00035 0 4
-4.0004 -5.66496e-18 3.5 -4.00039 0 3 -4.5002 0 3 -5
-9.5459e-22 3 5 -8.47033e-22 3.5 5 2.1923e-22 4 5 1.90287e-22
4 6 4.23516e-22 4 7 0 4 8 0 4
9 4.23516e-22 4 10 0 4 11 2.11758e-22 4 12
2.11758e-22 4 13 0 4 14 2.11758e-22 4 15 0
4 -5 0 3 -5 0 4 -0.750077 -1.69407e-21 3.00019
-0.975165 6.35275e-22 3.00002 -0.50002 0 3.43551 -0.50014 0 3.00035 0.249985
0 3.00023 0.097637 1.69407e-21 3.00023 0.500042 3.38813e-21 3.26572 0.500014 0
3.00034 1.00005 -1.35525e-20 3.00048 1.00018 8.47033e-22 3.50026 1.50019 0 3.50023
1.50022 -1.55041e-17 3.00052 1.2501 0 3.00055 2.00039 0 3.00045 2.00025
6.77626e-21 3.50028 2.50024 -6.77626e-21 3.50026 2.50027 -2.15688e-17 3.00027 2.25034 0
3.00035 3.0002 -1.69407e-21 3.00018 3.00017 9.52404e-18 3.50018 3.50015 3.38813e-21 3.50016
3.50018 0 3.00016 4.00014 -6.90484e-17 3.50015 4.41401 8.47033e-22 3.50003 4.5
2.24255e-22 3 4.5 0 3 4.00015 0 3.00016 5 0
4 -5 -4.56216e-21 5 -4.00031 0 5 -3.00034 1.35525e-20 5.00001
-3.0004 2.50722e-18 4.5 -3.00052 0 4 -3.50051 -3.61446e-17 4 5
-5.3804e-23 4 4.5 0 4 4.01315 -1.98523e-22 4 6 -1.77009e-22
5 7 8.49641e-23 5 8 -2.44576e-22 5 9 -1.79481e-22 5
10 -8.26783e-24 5 11 3.71066e-23 5 12 7.40495e-23 5 13
-7.46022e-23 5 13 -3.57483e-23 5 14 -2.11758e-22 5 15 0
5 -5 1.00974e-28 5 0.5 0 4 0.499998 0 4
0.5 0 4 1 -1.61559e-27 4 1 -1.61559e-27 4 1.5
-5.24977e-23 4 1.5 0 4 2.00017 -3.38813e-21 4.00019 2 -4.13239e-17
4.5 2.5 0 4.5 2.50016 0 4.00018 3 0 4
3 2.76547e-17 4.5 3.5 -2.52435e-29 4.5 3.5 0 4 5
0 5 4 0 4 4 -3.3529e-17 4.5 4 1.26218e-29
5 6 3.15544e-30 5 7 0 5 8 0 5
9 3.9443e-31 5 10 0 5 11 -9.86076e-32 5 12
-4.93038e-32 5 13 1.2326e-32 5 -5 -1.50785e-21 6 -4.00028 0
6 -3 -2.11758e-22 6 -2 -2.11758e-22 5 -2.50019 3.01205e-17 5.00003
-2 0 6 -1 -2.35712e-17 5 -1.5 1.39417e-17 5 -1
8.47033e-22 6 -1.46255e-06 1.4195e-17 5 -0.500002 2.00704e-17 5 -4.41788e-07 4.23516e-22
6 1 1.75768e-17 5 0.499999 -4.03442e-18 5 1 0 6
2 -1.6111e-22 6 1.5 -2.46127e-23 5 14 -2.49584e-23 6 15
6.49997e-23 6 -5 0 6 2 -1.00974e-28 6 2 -6.34437e-17
5 1.5 4.03897e-28 5 3 5.04871e-29 6 3 -2.10964e-17 5
2.5 0 5 4 -1.26218e-29 6 3.5 2.52435e-29 5 5
-6.31089e-30 6 6 -3.15544e-30 6 7 1.57772e-30 6 8 7.88861e-31
6 9 -3.9443e-31 6 10 0 6 11 0 6
12 -2.46519e-32 6 13 1.2326e-32 6 14 0 6 15
-1.52652e-17 6 -5 -6.17313e-21 7 -4.00025 1.35525e-20 7 -3 6.2323e-23
7 -3 5.04871e-29 7 -3 1.09771e-22 7 -2 4.23516e-22 7
-1 -4.23516e-22 7 -6.20385e-08 0 7 1 0 7 2
0 7 -5 -2.52435e-29 7 -3 0 7 2 5.04871e-29
7 3 2.52435e-29 7 4 0 7 5 6.31089e-30 7
6 -3.15544e-30 7 7 0 7 8 3.9443e-31 7 9
0 7 10 -9.86076e-32 7 11 0 7 12 1.2326e-32
7 13 0 7 14 0 7 15 -1.08141e-17 7
-5 1.7064e-23 8 -4 0 8 -3 1.32733e-22 7 -3
0 8 -2 0 8 -1 -4.23516e-22 8 -4.65216e-09 0
8 1 0 8 2 0 8 -5 7.6473e-18 8
2 -2.52435e-29 8 3 0 8 4 0 8 5
-6.31089e-30 8 6 1.57772e-30 8 7 0 8 8 3.9443e-31
8 9 0 8 10 9.86076e-32 8 11 0 8
12 1.2326e-32 8 13 0 8 14 0 8 15
0 8 1.98072e-05 -1.47443e-18 0.0155232 -6.78597e-10 6.46235e-27 0 -0.015625 1.89557e-19
0 -0.015607 0 0.0155222 0.015625 6.46235e-27 0 0.984621 -2.64274e-19 1.00027
1.00023 6.77626e-21 1.00025 1.00022 0 0.984609 0.984609 0 0.984627 -0.875589
0 0.875281 -1.00051 0 0.875232 -0.000168606 -7.04731e-19 0.984785 -0.0157783 0
0.984748 -0.0157891 0 1.0004 0.984964 -4.87891e-19 0 0.984951 0 0.0152386
0.0154375 2.71051e-20 0.984823 0.500347 0 0 0.484697 -1.40946e-18 0 0.484699
-2.71051e-20 0.0154073 0.50035 2.71051e-20 0.0153902 6.85113e-05 -6.74075e-34 0.497067 0.00351742 0
0.497921 0.00351735 -6.16298e-33 0.497919 0.500935 -5.29396e-23 0.500103 0.500923 1.81265e-19 0.484474
0.485343 0 0.48448 0.485354 -5.29396e-23 0.500107 -1.0005 0 1.12529 -0.875598
0 1.12535 -0.847656 0 1.75035 -0.875511 -8.67701e-18 1.75034 -1.00046 8.00954e-18
1.75027 -1.00043 4.23516e-22 2.00034 -0.000137327 0 2.00046 -0.000174407 -6.77626e-21 1.87558
-0.125203 0 1.87555 -0.125185 -4.78404e-18 2.0005 1.00026 0 1.03153 0.969013
6.77626e-21 1.00028 0.969038 8.80914e-19 1.03156 0.0614109 0 1.87557 -0.0314004 0
1.00037 -0.0314207 0 1.03167 -0.750309 -7.75205e-18 1.87547 -0.750381 0 1.75039
0.124961 0 1.87556 1.00049 5.54298e-18 1.87554 0.875516 1.35525e-20 1.87556 0.875507
0 2.00058 -0.442444 -4.23516e-22 0.0622773 -0.437776 0 0.0622817 -0.437709 -2.11758e-22
0.0234443 -0.0040072 3.0527e-19 0.500638 -0.000168277 0 0.500646 -2.94017e-06 0 0.497049
-0.00322378 0 0.496279 -0.492468 -5.29396e-23 0.500175 -0.469803 -2.11758e-22 0.500181 -0.469837
0 0.468841 -0.501073 0 0.468827 -0.501061 2.64698e-23 0.480492 -0.000101869 -1.47052e-19
0.504366 -0.00397949 -2.01948e-28 0.504355 -0.501028 0 0.522018 -0.501022 0 0.531434
-0.469779 0 0.531436 0.00364412 0 0.500984 0.00375691 0 0.504522 0.485366
0 0.514811 0.485366 0 0.515734 0.500948 0 0.515729 0.500947 -1.65436e-24
0.515118 -0.500391 3.52366e-19 0.0622223 -0.437669 4.23516e-22 0 -0.500304 0 0
-0.501042 0 0.500173 -0.50037 -5.42101e-20 1.00067 -0.43782 0 1.00061 -0.437881
5.42101e-20 0.938131 -0.500433 0 0.93818 0.500963 -5.14996e-19 0.984633 0.485343 0
0.984612 0.485309 -1.35525e-20 1.00027 0.500901 2.71051e-20 1.00034 -2.0003 0 0
-2.00031 0 0.249984 -1.75035 -6.77626e-21 0.249978 -1.75034 -2.12097e-18 0 -1.12549
1.69407e-21 0.0567975 -1.12551 -3.38813e-21 0.124883 -1.1051 0 0.12486 -2.00053 -4.06576e-19
0.750021 -2.00052 0 1.00001 -1.75043 0 1 -1.75044 1.35525e-20 0.750004
1.03145 0 1.00022 1.03142 0 0.968935 1.0002 -6.77626e-21 0.968969 -1.12548
0 0 -1.12547 0 0.875178 -1.12544 0 1.00021 -0.562867 -4.63496e-18
0 -0.562923 0 0.0621015 -0.875622 1.40946e-18 0.499992 -0.875629 -1.40946e-18 0.43746
-0.875614 0 0.37493 -1.00058 -1.35525e-20 0.374847 -1.0006 -6.77626e-21 0.499982 -0.501071
0 0.459931 -0.501067 7.5513e-19 0.437262 -0.563478 0 0.437296 -0.563493 0
0.500081 1.875 7.07317e-18 0 1.875 0 0.125 2 -9.02096e-18 0.875
1.875 -1.00974e-28 0.875 1.875 0 1 -0.501021 2.64698e-23 0.532727 0.516516
0 0.515723 0.516516 -1.65436e-24 0.515322 -1.00059 3.04932e-18 0.625092 -0.875599 0
0.625021 -0.875605 0 0.562503 -0.563001 -5.42101e-20 0.938195 -0.562935 0 1.00068
-0.501004 6.60686e-20 0.562681 -0.563465 6.77626e-21 0.562645 0.515999 -2.71051e-20 0.0153741 0.515996
1.89735e-19 0 1.00002 0 0.499997 1.00004 6.91179e-19 0.484354 0.984415 3.38813e-21
0.484354 0.984397 0 0.499997 0.516504 -1.57919e-19 0.500096 0.516494 -4.23516e-22 0.484467
0.984397 0 0.515625 1.00002 0 0.515625 0.516455 3.25261e-19 1.00046 0.516567
-2.71051e-20 0.984687 -0.000486907 -2.11758e-22 0.751673 0.0150628 0 0.751704 0.0151069 -2.11758e-22
0.736039 -0.000466544 1.79846e-18 0.73608 0.250631 -1.05879e-22 0.499142 0.234996 0 0.4991
0.235042 0 0.51471 0.250685 1.77115e-18 0.514757 0.234396 1.59578e-18 0.751475 0.250021
2.64698e-23 0.751472 0.250098 0 0.735925 0.234416 0 0.735938 0.500674 0
1.03185 0.469677 2.71051e-20 1.00028 0.46947 -2.71051e-20 1.0318 -0.000487113 0 0.767278
0.0150573 0 0.767313 0.249988 1.48893e-23 0.985961 0.249988 0 0.985377 0.234363
0 0.98538 0.234363 8.27181e-25 1.00097 0.234889 9.09899e-24 1.00097 0.250006 2.3521e-18
0.76703 0.234384 0 0.767027 0.249988 -2.64698e-23 1.00096 0.250614 0 0.249941
0.237135 1.32349e-23 0.249938 0.250669 1.98523e-23 0.26291 0.484921 5.42101e-19 0.249634 0.484944
-5.42101e-20 0.265243 0.500584 0 0.265233 0.500562 5.42101e-20 0.249623 0.25266 0
[...]
POINT_DATA 9879
FIELD attributes 1
p 1 9879 float
-0.146054 1.38486 1.70113 -4.45958e-05 -2.61929 0.637863 -0.146054 -0.199362 0.209066 -0.254733 0.127621
-0.197351 0.114828 -0.132632 0.0937294 -0.0955297 0.0764383 -0.0720992 0.0660475 -0.051386 0.0637719
-0.026936 0 0.0331491 0.6759 0.6759 0.681855 0.681855 0.584351 0.607087 0.614869
-4.52742 -6.89045 -7.59526 -4.98417 -71.6757 -72.9942 -71.7979 3.99116 4.06253 4.22818
4.15029 3.95765 2.76727 1.9221 0.927332 1.54476 2.39826 1.60854 0.117298 -1.06906
-0.456929 0.511212 0.432362 0.432362 -0.440367 -0.440367 -0.146054 -2.61929 -0.146054 -0.547386
-0.784527 -0.368796 -0.213752 -0.147481 -0.097038 -0.0619889 -0.0397213 -0.0229787 -0.0138643 0
0.697826 0.718786 0.718786 0.697826 5.05839 5.09193 6.91681 6.98812 44.5537 40.2944
40.2386 44.4837 44.9099 -18.2794 -17.6385 -2.01465 4.7572 -0.249886 -3.38497 -11.121
-4.69583 0.245658 -2.36224 -2.70718 -2.02129 -2.33592 -3.29821 -2.70718 -2.56798 -0.547385
-0.547385 0.0518112 0.186496 0.121282 0.160468 0.122252 0.0784477 0.0591528 0.0529661 0.0498462
0.045911 0.0342953 0 0.738941 0.738941 0.738941 3.6986 3.0263 2.73432 2.97381
5.49219 5.42462 3.86619 3.82912 5.23351 3.61716 2.84931 2.54211 3.22866 3.45891
2.86583 2.03557 1.85707 2.59969 0.585133 1.76063 1.49309 1.14148 0.585134 0.158519
0.159895 0.0978742 0.0978741 -0.125299 0.761602 0.776259 0.789004 0.787628 0.765889 0.762089
0.236685 0.230487 0.230487 0.133896 0.0478831 0.00693546 -0.00422568 -0.00316669 0.00171204 0.00606432
0.00767864 0.00650988 0 0.762089 0.761602 1.77946 1.62784 1.44342 1.84872 1.98847
1.96929 1.59322 1.85859 1.60767 1.21326 1.02909 1.32538 1.49551 1.08693 0.849926
0.694252 0.908996 1.02341 0.703001 0.54648 0.397205 0.462406 0.285611 0.254029 0.213626
0.213626 0.249287 0.230487 0.748575 0.754915 0.775412 0.806631 0.83553 0.801508 0.230487
0.257253 0.295147 0.14501 0.0924719 0.0714181 0.0606122 0.0501888 0.0412217 0.0337541 0.0262307
0.0262307 0.0174142 0 0.748575 1.07552 1.07552 1.07552 0.977689 0.977689 0.849854
0.849854 0.717035 0.636155 0.538142 0.592284 0.479471 0.449508 0.372898 0.376981 0.219543
0.29617 0.31709 0.310916 0.14501 0.0924719 0.0714181 0.0606122 0.0501888 0.0412217 0.0337541
0.0262307 0.732204 0.733721 0.738264 0.812837 0.799189 0.741672 0.841087 0.839592 0.732835
0.825471 0.855493 0.697236 0.73243 0.803067 0.624376 0.520123 0.670189 0.00674488 0
0.732204 0.520123 0.581798 0.670189 0.407573 0.429414 0.5063 0.30938 0.367059 0.228908
0.164157 0.118329 0.0870937 0.063161 0.0442573 0.0307378 0.0211465 0.0133487 0.00674488 0
0.720022 0.719245 0.715903 0.715903 0.715903 0.706627 0.685309 0.644418 0.579068 0.492717
0.720022 0.715903 0.492717 0.398239 0.310385 0.236094 0.176145 0.130031 0.0957313 0.0705669
0.0520741 0.0384783 0.028043 0.0190547 0.0108985 0 0.715633 0.714237 0.715903 0.708766
0.69615 0.671681 0.629606 0.56652 0.485338 0.715633 0.485338 0.396232 0.31195 0.239825
0.180834 0.134509 0.0997119 0.0740237 0.0546356 0.039622 0.0276711 0.0174763 0.00879123 0.00245173
-72.9968 -72.8664 -73.8741 -74.0126 -71.6755 5.67356 5.89922 5.19796 4.78644 6.73248
4.65961 46.8714 46.7584 44.7909 3.85623 3.9079 46.8836 -12.7528 -14.0512 -13.9959
-12.697 34.5393 21.6645 21.6671 -25.0595 -22.3794 -24.6281 -27.1897 5.11765 6.78522
4.38514 4.25353 3.60215 3.01589 5.3641 6.41991 6.29498 5.40975 6.06977 5.2253
5.99374 6.40716 44.2568 40.0486 4.28226 4.84472 6.39389 4.09542 4.40134 3.94293
-36.3465 -36.8917 -36.8999 43.9018 31.2042 34.806 48.5556 13.2456 15.3688 9.23436
7.76559 9.50599 26.4557 41.1417 15.8151 17.2689 20.5371 16.9242 10.3359 -29.4685
-29.6116 -27.6531 -27.5517 -29.5784 -36.9048 -29.8397 12.4424 19.7315 23.1044 25.9169
21.6516 13.4943 14.4603 14.8345 13.9766 0.193327 0.277932 0.0265631 -0.125743 -3.11829
-2.96259 -3.21815 0.777917 1.03328 1.27829 0.884105 5.48643 3.96704 3.95972 -3.24818
3.32202 3.73613 -24.0024 -23.6464 1.15776 -0.447604 -2.08658 -1.46839 0.538055 6.19198
2.182 1.39797 8.30769 3.60044 3.76349 -26.9881 -26.1088 -14.9591 17.3911 -25.8158
-25.7453 2.38008 3.95553 2.77939 17.9887 16.7276 20.2224 13.899 -11.4648 -11.521
3.51534 4.55882 4.61548 3.56119 -23.0671 -20.2835 2.18652 2.26913 13.039 12.5843
103.555 103.956 109.624 109.096 -108.299 -120.172 -124.062 -110.971 54.1228 45.7174
44.457 54.4251 14.6254 15.8646 16.3084 98.2526 98.5495 34.5167 34.5593 35.9707
34.8957 34.8461 46.3643 53.5519 33.422 -52.8622 -56.3965 -54.3972 -10.6071 -10.3605
-8.70336 -8.99588 -54.1787 -50.5216 -48.9213 12.3145 14.0129 13.8476 12.4182 9.95144
10.0167 12.5344 12.2081 12.5384 13.9942 9.30219 10.1876 10.9244 10.043 17.904
20.5639 8.7393 11.7463 10.5589 -130.934 -122.881 -125.956 -134.509 115.293 118.335
132.138 132.4 -92.0257 -100.616 -118.874 -105.639 -24.0142 -25.0255 -25.9985 105.394
100.345 -78.4793 -82.8862 102.941 108.334 118.936 130.296 108.087 -119.29 -126.867
-104.763 -115.507 -54.7108 -56.9487 -59.0611 -97.4062 -94.7253 158.954 152.428 153.37
159.246 159.422 -203.345 -206.583 -210.153 -207.993 163.645 167.512 166.048 162.335
-99.1845 -12.0144 -13.0885 -15.6435 -14.7511 37.6433 34.8975 -22.8929 -17.0756 -19.7798
-30.091 -32.0343 68.8175 74.8868 81.6696 74.5287 34.3826 35.8372 26.4474 26.4398
67.2334 62.6575 104.089 97.6596 94.2519 100.704 -59.3126 -67.1558 -51.3393 -45.8955
165.182 159.527 160.85 97.7443 34.8442 36.6993 40.0811 37.9073 63.406 68.6436
-198.894 -202.999 -216.82 -233.826 -221.849 -206.385 -145.216 -137.142 -146.217 -154.975
32.2945 32.2626 33.1132 -10.4021 -9.23754 39.3915 -199.062 -204.53 -70.1295 -79.1876
169.394 -272.42 -272.42 -267.737 -265.633 -271.09 -286.685 -278.982 -259.979 -266.805
-53.5561 -42.2949 0.835691 -2.65825 0.337131 3.9223 -33.1685 -33.4421 -28.0339 -28.2636
-272.42 40.8458 33.2397 30.373 38.494 104.781 97.3151 103.075 111.28 -41.476
-43.7209 -43.7196 -41.4674 -51.2125 -54.6768 -63.8966 -67.7984 -67.5739 -63.812 -115.657
-118.348 -84.854 -95.2493 -112.475 -55.0566 -64.3651 -68.1793 -59.2562 -59.2436 -35.1597
-35.199 -26.6104 -26.5989 -74.2673 151.126 159.365 158.351 170.329 170.14 167.289
167.417 134.636 129.699 133.088 138.058 -276.724 -276.012 -59.8353 35.6224 32.8718
25.2961 31.8456 58.0652 -276.724 145.936 147.111 100.137 106.44 158.446 78.0967
70.7038 74.1119 82.7795 35.1274 41.7109 99.6176 92.9704 91.7762 88.466 45.308
42.3284 43.2977 46.64 65.3806 62.0582 60.303 63.4344 -194.51 -74.8711 -81.678
-86.1354 -78.8868 -128.345 -135.824 -62.8257 -49.681 -48.6729 -53.298 -54.1417 -38.1416
-39.1679 136.305 127.568 125.098 130.086 135.893 136.972 110.999 117.357 -269.002
-263.461 -170.659 -182.217 -191.055 -179.015 -223.901 -230.289 -222.306 -217.247 -109.713
-128.158 -123.687 -104.408 -196.789 -201.585 -187.582 -185.313 -211.364 -214.51 -218.01
-211.442 -225.886 -227.823 -217.156 -214.721 -228.462 -219.13 -227.632 -231.665 -109.39
-115.098 -127.434 -122.297 139.268 137.033 143.234 144.812 67.8244 66.8281 73.6973
80.3849 78.5163 133.102 130.964 66.6475 4.50698 64.8308 88.7944 -212.493 -211.81
-225.648 -226.608 -220.273 -222.242 -223.504 -218.838 159.91 156.753 157.897 160.595
-299.497 -306.752 13.4502 4.99985 -12.6276 -8.4856 3.98256 -102.004 -96.513 46.197
7.99228 -55.3793 -269.89 -253.107 -169.278 -159.902 -173.016 -183.272 -208.397 -193.018
-202.996 -236.24 -237.075 -294.45 -283.688 -287.895 -236.375 -239.017 26.2195 23.3534
-27.6655 -36.8136 -39.1356 -27.9654 3.46413 -2.75429 -10.5627 -4.80295 16.9963 22.1017
24.4792 57.2084 55.3937 61.0288 52.0854 -216.346 -197.678 -216.792 -223.841 -220.642
-230.516 -231.978 -225.567 -78.3493 -86.2991 -104.633 -103.978 125.247 117.778 129.613
135.32 59.5089 47.8574 64.5871 70.3201 117.462 108.846 98.4675 89.931 94.1108
103.719 -227.153 -245.828 173.129 173.585 -271.686 -273.552 -307.935 -303.532 -274.199
-291.838 -302.13 -292.375 -282.753 -232.75 -238.514 -17.0256 -12.11 3.86617 0.253922
-0.0942477 2.62486 -7.63315 -5.43512 -6.93543 -9.87567 19.6883 20.3479 5.04191 6.99985
9.38395 12.1151 11.0959 8.42893 -221.551 -211.862 -153.776 -184.421 -200.012 -187.074
-170.408 -161.022 -216.63 -220.896 -248.75 -254.883 -244.55 -239.014 -215.705 -212.607
-220.777 -224.585 -245.846 -247.725 -234.32 -236.251 -209.643 -194.443 -217.263 -256.639
-224.293 -191.964 -186.766 -195.838 -200.191 -229.711 -219.9 -206.223 -210.403 -204.642
-105.452 -102.515 -68.9549 73.0928 47.3939 109.097 101.564 93.6567 -105.452 -66.7843
-49.7478 27.2183 21.4334 6.93344 8.30862 -24.4406 -37.9325 -44.1023 -28.3128 51.4183
42.8956 29.9467 37.4924 35.9383 33.364 37.5385 39.8154 -225.319 -189.854 -168.729
-207.772 -208.895 -222.901 -301.053 -312.041 155.585 152.895 153.893 156.851 -368.146
-372.092 -380.829 -375.504 159.815 175.878 176.134 155.593 153.846 148.214 149.427
160.775 160.751 164.083 163.115 -326.827 -332.48 -336.4 -330.431 -293.856 -289.907
-295.851 -299.183 -34.332 -68.9957 -49.4009 -19.9225 -169.206 -141.268 -129.875 175.878
-200.949 -209.839 -130.772 -140.679 -142.28 -132.31 -244.624 -244.342 169.91 172.621
-160.292 -130.31 -132.556 -152.547 -172.487 -272.138 -308.573 167.049 100.881 93.6666
105.119 114.574 108.704 126.109 131.186 -191.896 -92.9144 -88.4579 -93.1381 -97.9994
-129.433 -137.838 153.031 155.053 162.517 157.683 156.595 159.241 162.947 159.616
160.381 163.792 171.716 169.012 170.198 172.32 153.031 172.32 171.716 150.492
145.935 146.243 151.168 168.018 170.744 169.174 163.791 164.981 145.864 152.415
152.312 146.38 -281.588 -273.148 -186.919 -175.335 -185.56 -198.349 -211.157 -225.731
-234.047 -239.654 -290.491 -215.566 -253.395 -256.09 -180.088 -234.538 -235.007 -296.732
-297.806 -279.278 -223.583 -245.085 -240.884 -281.338 -269.448 -270.598 -281.798 -284.176
-268.906 -297.806 -281.338 -270.598 -186.02 -186.02 -166.762 -171.211 -190.479 163.384
166.617 162.133 -186.02 163.384 166.617 158.315 160.276 158.185 154.127 149.342
151.626 155.563 156.596 159.094 157.689 -54.7542 -94.6938 -222.679 -189.904 -221.271
-176.183 -174.602 -181.566 -163.019 -171.073 -161.91 -153.175 -244.668 -247.881 -219.936
-229.092 -174.588 150.088 151.204 158.068 128.657 136.813 136.281 129.392 129.478
136.743 141.432 145.939 171.515 168.632 145.07 152.211 -121.12 -131.787 -209.923
-220.734 -225.602 -212.695 -142.049 -158.561 -156.423 -137.977 -155.289 -149.893 -95.0889
-110.96 163.384 156.4 156.751 130.311 138.392 159.292 162.108 169.425 168.654
165.876 166.618 171.716 170.878 168.068 171.958 171.958 171.063 172.612 171.958
172.612 -238.871 -238.662 -247.703 -245.847 -270.598 -247.851 -246.018 -269.043 -265.111
144.418 -290.257 -255.553 -280.715 -269.772 -246.987 -354.862 -361.632 -345.339 159.404
-435.81 -445.641 -466.368 -456.833 -379.327 -386.735 -262.238 -289.528 -418.205 -410.109
-365.024 -383.967 -258.726 -265.793 -260.801 -285.318 -288.611 -328.275 -322.684 -264.402
-256.359 -264.989 -273.519 -281.227 -291.422 -297.006 -300.611 -190.86 -211.522 -214.125
-203.752 -198.605 -173.961 -180.669 -113.258 -125.384 -136.366 -124.867 -155.408 -146.285
-183.96 -231.755 -252.507 -208.379 -207.474 -204.433 -203.209 -198.616 -209.629 -211.307
-338.791 -343.321 118.958 111.4 112.766 120.067 4.92912 11.2969 117.952 110.765
138.399 123.75 110.127 126.835 14.38 7.66781 -11.0574 -3.73335 -18.054 -25.2166
-40.6887 -36.6759 -69.4208 -57.594 -39.8286 -51.185 -36.6746 -18.0499 -146.144 -154.015
-112.157 -128.517 -182.397 173.685 179.105 183.225 175.67 -118.533 -80.7147 -49.7534
-83.5263 -616.933 -563.254 -584.195 -633.212 -128.666 -138.406 -126.13 -149.608 -242.083
29.433 38.2468 30.879 20.6404 16.4874 -104.565 -100.874 -36.3588 -25.1636 -13.0726
-21.1144 -30.4592 144.434 95.5393 91.1407 93.3737 97.9293 124.669 127.947 175.429
173.392 174.033 175.429 173.392 -262.581 -260.014 -272.293 -268.894 -264.747 175.581
148.489 142.773 146.015 152.3 160.524 163.43 -280.618 -280.618 166.617 165.692
161.335 174.367 171.848 172.665 164.22 160.335 160.661 164.766 -244.291 -251.316
-261.349 -264.259 -258.506 -255.843 -242.63 -238.688 -249.644 -253.425 -255.55 -249.581
-174.249 -191.58 -222.333 -239.473 -244.344 -224.751 -178.027 -191.79 -192.548 -177.772
-217.632 -197.825 -193.725 -212.532 -151.677 -149.385 -161.343 -161.867 -145.049 -159.548
-292.762 -304.398 -311.784 -288.835 -289.077 -289.077 168.52 171.857 173.088 169.662
180.654 180.573 178.951 180.755 -285.037 -284.358 -266.742 -269.569 -282.947 -285.531
-280.193 -277.531 180.573 -114.451 -107.528 -100.18 -94.3792 -102.804 -122.731 -127.633
-106.914 -121.577 -307.562 -310.473 -310.473 -323.7 -329.122 -329.122 -323.7 -316.77
-316.77 -334.015 -330.263 -344.105 -339.722 -333.206 -320.177 -374.237 -377.04 -375.744
-374.483 -370.17 125.636 126.291 -340.556 -355.144 -350.671 -378.387 -5.38421 186.386
184.432 190.869 192.919 154.301 155.082 149.365 133.338 -304.439 -308.67 -307.284
-315.331 -311.37 -316.761 -320.989 -322.665 -300.836 -305.793 -306.003 -309.823 -315.925
-113.544 -101.708 -56.0726 -51.8026 -85.6123 -73.9375 -374.483 -51.7998 -453.742 -474.158
171.692 175.747 -519.419 -643.469 -547.967 -102.225 -138.862 -285.068 -245.418 -221.699
-255.893 -275.647 -486.74 -482.287 -522.366 -572.274 -425.602 -259.687 -297.992 -299.656
-471.618 146.928 152.352 168.318 167.405 144.901 137.656 141.316 147.943 167.97
165.214 164.075 165.742 166.3 169.239 167.037 164.915 168.345 170.863 167.437
170.606 172.41 169.44 171.023 173.2 170.959 172.818 168.003 167.101 166.134
172.541 -255.163 -242.03 -251.481 -268.011 -311.913 -295.735 -310.609 174.514 -232.619
-238.474 -227.422 -231.371 -242.723 -311.772 -311.728 -297.397 -286.179 -277.081 -310.609
-311.913 -259.543 -262.516 -260.125 -273.551 -297.806 -255.419 -164.171 -138.885 -119.277
-145.823 -160.973 -180.56 -255.395 -249.079 -263.481 -238.332 -259.779 -205.226 -255.796
-257.957 -263.486 -259.792 174.371 174.394 171.154 161.963 158.684 159.597 162.475
160.06 163.696 174.394 -234.739 -219.391 -177.448 -177.173 -201.81 -202.595 -190.02
-179.377 -190.889 -125.432 -137.937 -119.289 -137.937 -143.977 -159.832 -157.785 -129.669
-137.937 -119.289 165.226 170.322 167.406 164.432 -300.959 172.423 172.386 172.423
172.386 166.703 169.808 -437.78 -413.034 -418.107 -440.338 -404.95 -427.881 -347.93
-370.183 -365.414 -347.43 -390.389 -395.946 -348.763 -330.528 -338.078 -354.399 -299.075
-301.925 -288.256 -290.751 -134.959 -136.625 83.1753 71.2626 74.1243 84.8026 28.6269
32.4511 81.1977 68.7538 79.0117 64.3546 65.0951 78.9065 -56.6575 -31.1198 52.1919
61.9401 49.2337 41.2387 -12.6039 -6.90333 10.3036 9.76322 168.77 111.685 108.148
117.573 123.107 132.686 140.184 38.9994 49.9314 45.8185 81.5588 93.9269 85.6306
48.4076 49.6897 58.9746 58.7336 167.058 171.239 172.89 173.744 155.388 148.908
126.989 127.762 134.08 133.171 128.981 135.6 172.009 169.287 169.334 -211.094
-227.041 -210.241 -227.041 -226.441 -244.544 -209.582 -227.041 -210.241 -244.544 -225.192
-232.967 -232.037 -239.47 -210.285 -221.485 -230.424 -236.809 -232.761 -224.793 141.542
142.467 146.774 145.914 162.381 160.079 156.602 158.565 145.559 146.996 151.854
150.047 227.161 210.852 210.061 237.836 238.634 238.634 173.617 187.344 222.716
131.118 118.521 131.452 155.294 153.41 150.373 153.913 145.983 137.994 175.008
183.876 173.295 157.202 156.946 156.154 238.634 179.692 177.912 171.827 169.139
169.681 171.94 177.85 177.618 177.107 176.048 176.368 169.43 169.529 166.817
166.107 166.125 165.033 164.261 165.314 165.329 157.32 154.045 155.094 157.881
163.405 164.166 179.692 177.85 -312.004 -312.009 -280.04 -260.837 -312.009 -301.763
-256.746 -261.607 -312.009 165.736 164.037 156.889 156.642 161.087 159.409 159.015
160.154 163.882 162.37 163.648 165.145 165.224 162.883 169.029 170.742 169.028
167.367 -445.121 -425.28 -455.4 -454.829 -411.897 -403.994 -396.441 -403.283 -393.866
-400.929 -397.341 -390.86 -430.486 -422.673 -415.605 -422.48 -430.486 -323.81 -308.849
-317.915 -331.508 -384.086 -328.478 -343.454 -454.829 -430.486 5.41966 -18.0354 5.42404
-354.484 -356.735 -354.131 -349.984 93.6315 94.2276 -359.866 -358.705 -0.428151 -356.735
-354.131 -359.866 182.889 170.359 175.848 188.413 188.019 187.404 189.259 189.942
186.221 184.626 279.704 269.434 247.856 255.785 71.0396 91.0385 71.7336 42.1505
35.7055 -430.53 -391.802 -326.684 -343.754 269.813 212.725 230.294 -453.063 -514.433
189.259 173.392 173.664 166.435 170.765 183.125 187.477 164.079 165.862 171.139
168.687 168.734 167.921 177.158 176.237 177.595 181.075 180.371 177.063 175.672
178.841 -312.213 -316.77 -312.213 -332.187 -332.894 -332.187 -312.944 -319.098 -323.799
-318.323 -350.224 -345.013 -334.631 -340.409 -334.814 -329.908 -355.259 -357.342 -363.274
-357.861 -351.81 -341.283 -346.11 136.838 137.536 141.31 143.984 140.101 164.382
160.253 -409.795 -409.794 -402.339 -397.027 -389.14 -381.396 -387.734 -395.082 -362.839
-368.801 -374.973 -381.218 73.4259 96.552 107.694 82.5801 150.592 121.007 205.448
214.168 176.826 172.361 180.477 186.347 186.8 207.532 -311.806 -333.102 -338.552
-333.956 -329.899 141.31 -409.795 -472.913 -497.387 -491.027 -468.072 169.399 172.274
185.852 180.515 180.328 176.846 176.34 -477.1 -499.659 -361.976 -409.035 -378.428
-340.902 -326.654 -364.496 -247.756 -269.142 -309.33 -279.279 -354.154 -374.172 -439.515
-436.979 -352.422 -379.705 -379.135 -356.706 -442.237 -347.513 -382.345 -355.407 -379.789
169.38 173.253 177.787 168.347 168.346 162.599 161.423 174.608 178.634 177.822
174.297 174.453 172.552 170.838 168.087 174.297 168.347 177.787 174.297 172.552
-315.399 -312.065 -288.721 -310.609 -272.845 -312.12 -250.228 -269.999 -278.834 -265.777
-258.247 -282.667 -291.038 -262.289 -274.653 -257.208 -254.557 -240.708 -267.629 165.837
167.14 173.232 171.187 171.187 173.663 175.822 177.559 172.373 174.897 -454.829
-454.364 -454.358 -417.513 -418.003 -426.334 -420.782 -411.946 -454.194 -445.456 -436.71
-429.421 -436.661 167.14 171.187 -454.829 -426.334 -445.456 -436.661 160.049 169.627
94.3046 117.252 108.783 224.57 219.6 225.221 198.437 -550.813 -616.323 -624.685
-563.957 173.167 174.495 198.747 197.36 179.277 178.948 182.839 184.246 -461.406
-482.668 -504.851 -488.342 267.346 237.058 185.477 106.171 250.1 175.448 177.069
179.409 178.812 174.836 177.946 174.38 174.271 183.66 185.818 188.745 186.9
217.09 214.06 204.079 205.315 209.197 204.322 198.432 194.054 198.314 214.457
202.372 206.421 218.679 223.673 232.984 227.967 202.66 210.94 124.795 150.466
118.113 96.37 -713.704 -425.702 -354.539 -123.767 -73.4554 -12.5088 -36.9556 -529.891
-600.434 -591.333 -850.812 -726.6 205.315 232.984 -28.6641 -53.3957 -135.75 -91.8044
-53.3955 55.3893 18.3975 44.1624 -53.3958 -135.75 179.063 177.655 177.791 178.159
176.242 174.785 177.647 177.791 -45.8533 -43.8151 -54.1823 -55.1209 -104.96 -34.1122
-45.8704 -76.3743 -53.585 -45.9515 -59.0703 -66.8144 -22.6621 -32.3234 -154.263 -129.715
-125.222 -153.103 -312.054 -215.081 -226.954 -179.365 -171.625 -212.674 -219.953 -403.484
-114.182 -170.756 149.593 185.982 38.4481 52.996 194.877 203.595 142.31 166.593
154.193 180.686 190.511 193.702 171.053 150.858 -116.853 -230.844 0.648793 0.601593
0.513728 0.5013 0.434459 0.389434 0.743785 0.817609 0.70944 0.895503 0.729678 1.26656
-0.470272 -3.31246 -2.61929 -10.9254 -12.0668 -11.7739 -5.02145 -3.26698 -9.91945 -5.86668
-59.3561 -61.4355 -61.5011 -59.412 -64.1245 -66.6266 -68.3209 -65.6819 3.24564 4.86019
5.26921 4.22587 4.45701 4.64373 4.43516 1.99345 3.07496 -22.1673 -21.0485 -8.50698
-12.3189 -14.9318 0.834672 0.982738 0.926657 1.22209 1.02977 0.888099 1.04336 1.04375
1.36169 1.36921 1.16573 1.17107 1.53743 4.82351 1.61466 1.66414 3.21215 2.9109
6.06951 3.90825 2.42103 2.73061 15.398 8.77536 7.45695 34.9304 35.9257 33.2439
31.1928 21.6569 21.5597 25.3377 25.4954 21.8553 23.4551 20.2124 19.0485 0.735209
3.85117 4.61699 4.55101 4.05161 3.45074 2.97961 -3.25466 3.87694 1.94034 2.34461
2.10575 1.03319 0.902108 1.25522 1.34482 0.890015 0.988845 1.1381 1.53084 2.52924
2.34601 2.13008 1.34258 1.50425 1.64369 1.44124 1.61111 1.6812 1.83485 1.66123
1.50032 3.8921 5.07747 3.73806 1.95699 2.38208 2.32802 1.97882 2.37018 1.12709
1.13722 1.14098 0.657715 0.237514 0.647307 0.240578 1.8488 2.03698 4.1599 3.21443
2.35295 1.90196 2.0864 1.78876 2.16633 1.71708 1.27473 1.40065 1.22184 1.5805