# vtk DataFile Version 2.0
sampleSurface
ASCII
DATASET POLYDATA
POINTS 9879 float
6 2.24045e-22 1 6 -4.23516e-22 0 5 0 0 5 4.23516e-22
0.5 5 5.02844e-23 1 7 1.69508e-17 0 6 2.40786e-23 1
7 -4.23516e-22 1 8 -1.0754e-16 0 8 4.23516e-22 1 9
-7.28995e-17 0 9 4.23516e-22 1 10 5.03714e-17 0 10 -4.23516e-22
1 11 -1.10109e-16 0 11 0 1 12 1.14673e-16 0
12 0 1 13 1.07357e-16 0 13 -2.11758e-22 1 14
-3.31971e-17 0 14 0 1 15 0 1 15 5.68977e-17
0 -5 -1.61559e-27 0 -5 1.61559e-27 0 -5 0 0.5
-5 8.07794e-28 0.5 -2.89285 0 0 -3.00033 0 0 -3.00033
-8.47033e-22 0.0932873 -1.00051 -1.01779e-17 0.124742 -0.875522 0 0.124691 -0.875461 -8.40257e-19
0 -1.00046 0 0 0.015625 1.94517e-24 2.2091e-05 5.35603e-05 -1.21492e-24 0.0155233
0.0156432 3.30872e-24 0.0155555 1.00057 -5.42101e-19 0.0152422 1.00056 0 0.0308735 1.03181
0 0.0308728 1.03183 -1.89735e-19 0 1.00058 0 0 2 1.21939e-17
0.125 2 2.01948e-28 0.25 2.25 0 0.25 2.25 -1.26744e-17 0
2 2.01948e-28 0 3 2.86199e-17 0.25 3 3.16479e-17 0.5 3.5
2.01948e-28 0.5 3.5 -1.71188e-17 0 3 2.01948e-28 0 4 0
0 4 0 0 4 5.4967e-18 0.5 4 1.00974e-28 0.5
6 2.52435e-29 1 5 0 1 6 2.96289e-24 1 5
3.35588e-25 2 6 4.23516e-22 2 7 4.23516e-22 2 8 0
2 9 -4.23516e-22 2 10 0 2 11 2.11758e-22 2
12 0 2 13 -2.11758e-22 2 14 0 2 15
2.11758e-22 2 -5 0 1 -5 0 1.5 -5 0
1.5 -5 0 1 -1.00051 0 1.00028 -1.0005 1.69407e-21 1.07098
-0.875582 -3.38813e-21 1.04431 -0.875573 0 1.00033 -0.000176494 0 1.00043 -0.000187004
1.35525e-18 1.03171 0.0310738 0 1.03178 0.0310423 5.42101e-20 1.0005 0.0154335 0
1.00047 2.25 0 1 2 5.03191e-18 1 2 -8.15581e-18 1.125
2 6.36148e-18 1.25 2.25 0 1.25 3.5 0 1 3
-7.24998e-18 1 3 -1.28933e-17 1.25 3 -3.74554e-18 1.5 3.5 0
1.5 4 0 1 4 2.0972e-17 1.5 4.50019 3.38813e-21 1.50011
4.50001 3.17637e-22 1.0073 4 -1.00974e-28 1 5 -4.34409e-17 1.5 5
-2.52435e-29 2 5 1.60269e-22 2 5 4.23516e-22 2.5 5 0
3 6 -4.23516e-22 3 7 4.23516e-22 3 8 4.23516e-22 3
9 0 3 10 0 3 11 -2.11758e-22 3 12
2.11758e-22 3 13 -2.11758e-22 3 14 2.11758e-22 3 15 0
3 -5 0 2 -5 0 2 -5 0 2
-0.750281 -2.71051e-20 2.0005 -0.996618 -5.0822e-21 2.00034 -0.884887 3.38813e-21 2.25032 -0.750178
-2.73083e-17 2.25039 0.124965 6.77626e-21 2.00046 0.0589837 -3.38813e-21 2.00046 0.102874 -1.69407e-21
2.25032 0.249982 -1.24887e-17 2.25032 0.249997 1.35525e-20 2.00047 1.0005 1.35525e-20 2.00056
1.00037 1.35525e-20 2.25063 1.25045 -1.35525e-20 2.25054 1.25043 -1.69813e-17 2.00047 1.12546
-1.35525e-20 2.00051 2.00018 3.38813e-21 2.00013 2.00027 1.07133e-17 2.25026 2.25027 6.77626e-21
2.25023 2.25017 6.77626e-21 2.00011 3.5 0 2 3.00014 -1.11944e-17 2.00005
3.00014 2.41235e-17 2.25008 3.00001 2.0117e-21 2.49701 3.5 0 2 4
-1.32349e-23 2 4.00001 0 2.00871 4.5 -3.02248e-22 2.5 4.5 2.52435e-29
2.5 4.50017 2.11758e-22 2.00014 -5 0 4 -4.00035 0 4
-4.0004 -5.66496e-18 3.5 -4.00039 0 3 -4.5002 0 3 -5
-9.5459e-22 3 5 -8.47033e-22 3.5 5 2.1923e-22 4 5 1.90287e-22
4 6 4.23516e-22 4 7 0 4 8 0 4
9 4.23516e-22 4 10 0 4 11 2.11758e-22 4 12
2.11758e-22 4 13 0 4 14 2.11758e-22 4 15 0
4 -5 0 3 -5 0 4 -0.750077 -1.69407e-21 3.00019
-0.975165 6.35275e-22 3.00002 -0.50002 0 3.43551 -0.50014 0 3.00035 0.249985
0 3.00023 0.097637 1.69407e-21 3.00023 0.500042 3.38813e-21 3.26572 0.500014 0
3.00034 1.00005 -1.35525e-20 3.00048 1.00018 8.47033e-22 3.50026 1.50019 0 3.50023
1.50022 -1.55041e-17 3.00052 1.2501 0 3.00055 2.00039 0 3.00045 2.00025
6.77626e-21 3.50028 2.50024 -6.77626e-21 3.50026 2.50027 -2.15688e-17 3.00027 2.25034 0
3.00035 3.0002 -1.69407e-21 3.00018 3.00017 9.52404e-18 3.50018 3.50015 3.38813e-21 3.50016
3.50018 0 3.00016 4.00014 -6.90484e-17 3.50015 4.41401 8.47033e-22 3.50003 4.5
2.24255e-22 3 4.5 0 3 4.00015 0 3.00016 5 0
4 -5 -4.56216e-21 5 -4.00031 0 5 -3.00034 1.35525e-20 5.00001
-3.0004 2.50722e-18 4.5 -3.00052 0 4 -3.50051 -3.61446e-17 4 5
-5.3804e-23 4 4.5 0 4 4.01315 -1.98523e-22 4 6 -1.77009e-22
5 7 8.49641e-23 5 8 -2.44576e-22 5 9 -1.79481e-22 5
10 -8.26783e-24 5 11 3.71066e-23 5 12 7.40495e-23 5 13
-7.46022e-23 5 13 -3.57483e-23 5 14 -2.11758e-22 5 15 0
5 -5 1.00974e-28 5 0.5 0 4 0.499998 0 4
0.5 0 4 1 -1.61559e-27 4 1 -1.61559e-27 4 1.5
-5.24977e-23 4 1.5 0 4 2.00017 -3.38813e-21 4.00019 2 -4.13239e-17
4.5 2.5 0 4.5 2.50016 0 4.00018 3 0 4
3 2.76547e-17 4.5 3.5 -2.52435e-29 4.5 3.5 0 4 5
0 5 4 0 4 4 -3.3529e-17 4.5 4 1.26218e-29
5 6 3.15544e-30 5 7 0 5 8 0 5
9 3.9443e-31 5 10 0 5 11 -9.86076e-32 5 12
-4.93038e-32 5 13 1.2326e-32 5 -5 -1.50785e-21 6 -4.00028 0
6 -3 -2.11758e-22 6 -2 -2.11758e-22 5 -2.50019 3.01205e-17 5.00003
-2 0 6 -1 -2.35712e-17 5 -1.5 1.39417e-17 5 -1
8.47033e-22 6 -1.46255e-06 1.4195e-17 5 -0.500002 2.00704e-17 5 -4.41788e-07 4.23516e-22
6 1 1.75768e-17 5 0.499999 -4.03442e-18 5 1 0 6
2 -1.6111e-22 6 1.5 -2.46127e-23 5 14 -2.49584e-23 6 15
6.49997e-23 6 -5 0 6 2 -1.00974e-28 6 2 -6.34437e-17
5 1.5 4.03897e-28 5 3 5.04871e-29 6 3 -2.10964e-17 5
2.5 0 5 4 -1.26218e-29 6 3.5 2.52435e-29 5 5
-6.31089e-30 6 6 -3.15544e-30 6 7 1.57772e-30 6 8 7.88861e-31
6 9 -3.9443e-31 6 10 0 6 11 0 6
12 -2.46519e-32 6 13 1.2326e-32 6 14 0 6 15
-1.52652e-17 6 -5 -6.17313e-21 7 -4.00025 1.35525e-20 7 -3 6.2323e-23
7 -3 5.04871e-29 7 -3 1.09771e-22 7 -2 4.23516e-22 7
-1 -4.23516e-22 7 -6.20385e-08 0 7 1 0 7 2
0 7 -5 -2.52435e-29 7 -3 0 7 2 5.04871e-29
7 3 2.52435e-29 7 4 0 7 5 6.31089e-30 7
6 -3.15544e-30 7 7 0 7 8 3.9443e-31 7 9
0 7 10 -9.86076e-32 7 11 0 7 12 1.2326e-32
7 13 0 7 14 0 7 15 -1.08141e-17 7
-5 1.7064e-23 8 -4 0 8 -3 1.32733e-22 7 -3
0 8 -2 0 8 -1 -4.23516e-22 8 -4.65216e-09 0
8 1 0 8 2 0 8 -5 7.6473e-18 8
2 -2.52435e-29 8 3 0 8 4 0 8 5
-6.31089e-30 8 6 1.57772e-30 8 7 0 8 8 3.9443e-31
8 9 0 8 10 9.86076e-32 8 11 0 8
12 1.2326e-32 8 13 0 8 14 0 8 15
0 8 1.98072e-05 -1.47443e-18 0.0155232 -6.78597e-10 6.46235e-27 0 -0.015625 1.89557e-19
0 -0.015607 0 0.0155222 0.015625 6.46235e-27 0 0.984621 -2.64274e-19 1.00027
1.00023 6.77626e-21 1.00025 1.00022 0 0.984609 0.984609 0 0.984627 -0.875589
0 0.875281 -1.00051 0 0.875232 -0.000168606 -7.04731e-19 0.984785 -0.0157783 0
0.984748 -0.0157891 0 1.0004 0.984964 -4.87891e-19 0 0.984951 0 0.0152386
0.0154375 2.71051e-20 0.984823 0.500347 0 0 0.484697 -1.40946e-18 0 0.484699
-2.71051e-20 0.0154073 0.50035 2.71051e-20 0.0153902 6.85113e-05 -6.74075e-34 0.497067 0.00351742 0
0.497921 0.00351735 -6.16298e-33 0.497919 0.500935 -5.29396e-23 0.500103 0.500923 1.81265e-19 0.484474
0.485343 0 0.48448 0.485354 -5.29396e-23 0.500107 -1.0005 0 1.12529 -0.875598
0 1.12535 -0.847656 0 1.75035 -0.875511 -8.67701e-18 1.75034 -1.00046 8.00954e-18
1.75027 -1.00043 4.23516e-22 2.00034 -0.000137327 0 2.00046 -0.000174407 -6.77626e-21 1.87558
-0.125203 0 1.87555 -0.125185 -4.78404e-18 2.0005 1.00026 0 1.03153 0.969013
6.77626e-21 1.00028 0.969038 8.80914e-19 1.03156 0.0614109 0 1.87557 -0.0314004 0
1.00037 -0.0314207 0 1.03167 -0.750309 -7.75205e-18 1.87547 -0.750381 0 1.75039
0.124961 0 1.87556 1.00049 5.54298e-18 1.87554 0.875516 1.35525e-20 1.87556 0.875507
0 2.00058 -0.442444 -4.23516e-22 0.0622773 -0.437776 0 0.0622817 -0.437709 -2.11758e-22
0.0234443 -0.0040072 3.0527e-19 0.500638 -0.000168277 0 0.500646 -2.94017e-06 0 0.497049
-0.00322378 0 0.496279 -0.492468 -5.29396e-23 0.500175 -0.469803 -2.11758e-22 0.500181 -0.469837
0 0.468841 -0.501073 0 0.468827 -0.501061 2.64698e-23 0.480492 -0.000101869 -1.47052e-19
0.504366 -0.00397949 -2.01948e-28 0.504355 -0.501028 0 0.522018 -0.501022 0 0.531434
-0.469779 0 0.531436 0.00364412 0 0.500984 0.00375691 0 0.504522 0.485366
0 0.514811 0.485366 0 0.515734 0.500948 0 0.515729 0.500947 -1.65436e-24
0.515118 -0.500391 3.52366e-19 0.0622223 -0.437669 4.23516e-22 0 -0.500304 0 0
-0.501042 0 0.500173 -0.50037 -5.42101e-20 1.00067 -0.43782 0 1.00061 -0.437881
5.42101e-20 0.938131 -0.500433 0 0.93818 0.500963 -5.14996e-19 0.984633 0.485343 0
0.984612 0.485309 -1.35525e-20 1.00027 0.500901 2.71051e-20 1.00034 -2.0003 0 0
-2.00031 0 0.249984 -1.75035 -6.77626e-21 0.249978 -1.75034 -2.12097e-18 0 -1.12549
1.69407e-21 0.0567975 -1.12551 -3.38813e-21 0.124883 -1.1051 0 0.12486 -2.00053 -4.06576e-19
0.750021 -2.00052 0 1.00001 -1.75043 0 1 -1.75044 1.35525e-20 0.750004
1.03145 0 1.00022 1.03142 0 0.968935 1.0002 -6.77626e-21 0.968969 -1.12548
0 0 -1.12547 0 0.875178 -1.12544 0 1.00021 -0.562867 -4.63496e-18
0 -0.562923 0 0.0621015 -0.875622 1.40946e-18 0.499992 -0.875629 -1.40946e-18 0.43746
-0.875614 0 0.37493 -1.00058 -1.35525e-20 0.374847 -1.0006 -6.77626e-21 0.499982 -0.501071
0 0.459931 -0.501067 7.5513e-19 0.437262 -0.563478 0 0.437296 -0.563493 0
0.500081 1.875 7.07317e-18 0 1.875 0 0.125 2 -9.02096e-18 0.875
1.875 -1.00974e-28 0.875 1.875 0 1 -0.501021 2.64698e-23 0.532727 0.516516
0 0.515723 0.516516 -1.65436e-24 0.515322 -1.00059 3.04932e-18 0.625092 -0.875599 0
0.625021 -0.875605 0 0.562503 -0.563001 -5.42101e-20 0.938195 -0.562935 0 1.00068
-0.501004 6.60686e-20 0.562681 -0.563465 6.77626e-21 0.562645 0.515999 -2.71051e-20 0.0153741 0.515996
1.89735e-19 0 1.00002 0 0.499997 1.00004 6.91179e-19 0.484354 0.984415 3.38813e-21
0.484354 0.984397 0 0.499997 0.516504 -1.57919e-19 0.500096 0.516494 -4.23516e-22 0.484467
0.984397 0 0.515625 1.00002 0 0.515625 0.516455 3.25261e-19 1.00046 0.516567
-2.71051e-20 0.984687 -0.000486907 -2.11758e-22 0.751673 0.0150628 0 0.751704 0.0151069 -2.11758e-22
0.736039 -0.000466544 1.79846e-18 0.73608 0.250631 -1.05879e-22 0.499142 0.234996 0 0.4991
0.235042 0 0.51471 0.250685 1.77115e-18 0.514757 0.234396 1.59578e-18 0.751475 0.250021
2.64698e-23 0.751472 0.250098 0 0.735925 0.234416 0 0.735938 0.500674 0
1.03185 0.469677 2.71051e-20 1.00028 0.46947 -2.71051e-20 1.0318 -0.000487113 0 0.767278
0.0150573 0 0.767313 0.249988 1.48893e-23 0.985961 0.249988 0 0.985377 0.234363
0 0.98538 0.234363 8.27181e-25 1.00097 0.234889 9.09899e-24 1.00097 0.250006 2.3521e-18
0.76703 0.234384 0 0.767027 0.249988 -2.64698e-23 1.00096 0.250614 0 0.249941
0.237135 1.32349e-23 0.249938 0.250669 1.98523e-23 0.26291 0.484921 5.42101e-19 0.249634 0.484944
-5.42101e-20 0.265243 0.500584 0 0.265233 0.500562 5.42101e-20 0.249623 0.25266 0
[...]
POINT_DATA 9879
FIELD attributes 1
U 3 9879 float
24.6075 -0.00251807 0.52495 25 0 0 25 0 0 24.3516 -0.0341612
1.20748 24.0051 1.8973e-05 1.63065 25 0 0 24.6075 -0.00251807 0.52495
24.6135 -0.00386601 0.540797 25 0 0 24.6203 -0.00429326 0.537017 25
0 0 24.6248 -0.00454884 0.529159 25 0 0 24.6292 -0.00476615
0.520224 25 0 0 24.6342 -0.00490817 0.510624 25 0 0
24.6394 -0.004975 0.500674 25 0 0 24.6441 -0.00500559 0.49079 25
0 0 24.6493 -0.00501574 0.479799 24.6523 -0.00501651 0.473675 24.8596 -0.00812673
0.196209 25 0 0 25 0 0 25 0 0
25 1.08607e-12 -8.7642e-11 25 0 0 25 0 0 25.0003
7.60213e-06 -0.000777735 25.2116 -3.10736e-07 -0.08459 25.3148 -0.000401201 -0.127674 25 0
0 25 0 0 25.0037 -8.9391e-05 0.000226553 27.6333 -0.0608319 0.149442
27.5877 -0.0629453 0.159528 24.6662 -0.0663486 0.102995 24.7135 -0.075905 0.232431 24.7094
-0.0714491 0.229599 25 0 0 25 0 0 24.8722 -0.0659022
0.754622 24.869 -0.0833534 1.68067 24.8208 -0.0875595 1.60218 25 0 0
25 0 0 24.8744 -0.0825948 1.23229 24.3175 -0.0814561 2.84929 24.1359
-0.0317729 1.58945 25 0 0 25 0 0 25 0
0 25 0 0 24.2 -0.0376254 1.48253 24.2 -0.0376254 1.48253
24.6075 -0.00251807 0.52495 24.0051 1.89761e-05 1.63065 24.6075 -0.00251807 0.52495 24.8888
0.0124843 0.564045 24.8098 0.00500101 0.380942 24.7943 0.00527682 0.375389 24.7883 0.00550589
0.366235 24.785 0.00560563 0.359699 24.7825 0.00562937 0.355349 24.7806 0.00565541 0.352162
24.779 0.00563485 0.349796 24.7776 0.00558518 0.347859 24.776 0.0055471 0.34726 24.775
0.00553375 0.347605 25 0 0 25 0 0 25 5.64433e-13
-6.9999e-11 25 9.10303e-13 -1.1178e-10 24.8218 0.00234858 -0.0937552 24.8209 0.00225603 -0.0745262
24.7462 0.00339766 -0.0826975 24.7425 0.00352625 -0.0989686 23.0988 0.0654605 2.0681 23.3029
0.0584265 1.87953 23.2898 0.0623478 2.064 23.0819 0.0698766 2.28064 23.072 0.0681959
2.18964 23.0263 0.0691374 6.9566 23.1663 0.105622 8.71529 23.6518 0.17657 6.4017
24.1675 0.135882 3.96641 23.9348 0.112593 3.99131 23.6404 0.0100813 2.35341 23.0836
0.00557264 5.29703 23.6493 0.081657 4.18058 24.4935 0.0610219 2.19022 24.4135 0.026066
1.55913 23.6675 0.00617859 2.26173 24.3436 0.0282399 1.54113 24.2968 0.0286626 1.53286
23.7096 0.00328805 2.19693 23.6675 0.00617859 2.26173 24.3573 0.0234414 1.31383 24.8888
0.0124843 0.564045 24.8888 0.0124843 0.564045 25.0232 0.007117 0.297237 25.0224 0.00408007
0.165691 25.0183 0.00247751 0.118451 25.0149 0.00290207 0.110012 25.0132 0.0031142 0.107236
25.0111 0.00326822 0.106801 25.0085 0.00339187 0.107489 25.0055 0.00349601 0.108781 25.0025
0.00351528 0.110522 24.9996 0.00349905 0.112432 24.997 0.00349222 0.11521 24.9958 0.00349283
0.117056 25 0 0 25 0 0 25 2.75405e-13 -2.75546e-11
24.8796 0.00121458 0.055829 24.9073 0.000820333 0.0279609 24.9201 0.000718644 0.0396795 24.9107
0.000848379 0.0512716 24.8116 0.0037712 0.277209 24.8144 0.00347283 0.253504 24.8773 0.00210386
0.182286 24.8789 0.0023517 0.208632 24.8223 0.00403287 0.305656 24.8846 0.00610166 0.463389
24.9164 0.0034843 0.312268 24.9282 0.00382947 0.336131 24.8994 0.00677618 0.499045 24.8904
0.00671389 0.497297 24.9136 0.00942042 0.611099 24.9485 0.0051843 0.408679 24.9559 0.00592199
0.437127 24.9248 0.0108478 0.66685 24.9524 0.0121759 0.624899 24.952 0.0155297 0.728689
24.9719 0.00931898 0.48391 24.9863 0.00546463 0.330271 24.9524 0.0121759 0.624899 24.9421
0.0140752 0.622072 24.9434 0.0139418 0.616812 25.0237 0.00764766 0.326917 25.0237 0.00764766
0.326917 24.9282 0.0155117 0.637963 25 1.71514e-13 5.84937e-12 24.9992 1.20766e-05 0.000413688
24.9989 1.45897e-05 0.000152858 24.9988 1.52961e-05 -0.000260599 24.9996 6.76323e-06 -0.000211239 25
2.22868e-13 -6.93782e-12 25.0215 0.00243051 0.104953 25.0217 0.00133351 0.0660373 25.0217 0.00133351
0.0660373 25.0256 0.00141934 0.059279 25.0285 0.00153402 0.0599829 25.0299 0.00162645 0.060922
25.03 0.00168603 0.0612106 25.0298 0.00172559 0.0610459 25.0294 0.00175427 0.0608586 25.029
0.00177901 0.0607406 25.0287 0.00179908 0.0607318 25.0287 0.00180712 0.0607423 25.0287 0.00180765
0.0607088 25 0 0 25 0 0 24.9592 0.000360317 0.0350192
24.9651 0.000285489 0.0259745 24.9734 0.000276845 0.0341731 24.9567 0.00043128 0.0458529 24.9513
0.000766793 0.0910256 24.9522 0.000680239 0.0802172 24.9676 0.000619435 0.0810457 24.9567 0.000832786
0.101825 24.9663 0.00102643 0.125623 24.9828 0.00053092 0.0761343 24.9898 0.000617359 0.0865926
24.9772 0.00122107 0.143737 24.9705 0.00118216 0.140952 24.9865 0.00143847 0.158374 24.9967
0.000719621 0.0945188 25.0027 0.000839908 0.100835 24.994 0.00170916 0.166532 24.9892 0.00168996
0.171063 25.0029 0.00207099 0.174171 25.0089 0.00105549 0.106338 25.0148 0.00129345 0.109606
25.0129 0.00263268 0.181748 25.0187 0.00158652 0.109247 25.0201 0.00208225 0.110374 25.022
0.00427301 0.18334 25.022 0.00427301 0.18334 25.0196 0.00319598 0.182118 25.0217 0.00133351
0.0660373 25 9.40491e-14 6.84582e-12 24.9996 9.87344e-06 0.000720432 24.9988 2.30003e-05 0.00202794
24.9979 2.74715e-05 0.00229601 24.997 3.0859e-05 0.00192541 24.9983 2.06102e-05 0.000826467 25.0217
0.00133351 0.0660373 25.02 0.0012701 0.0749483 25.0184 0.000896912 0.0710128 25.0241 0.000586584
0.0291161 25.0261 0.000716606 0.0279624 25.027 0.00081609 0.0265248 25.0275 0.000888406 0.0251661
25.028 0.000943069 0.0241058 25.0284 0.000983306 0.0234511 25.0287 0.00101716 0.023134 25.029
0.0010417 0.0230311 25.029 0.0010417 0.0230311 25.0295 0.00105602 0.0231182 25.03 0.00106203
0.023206 25 0 0 24.9881 0.000271678 0.0425527 24.9881 0.000271678 0.0425527
24.9881 0.000271678 0.0425527 24.992 0.000329991 0.0510183 24.992 0.000329991 0.0510183 24.9969
0.000379945 0.0577801 24.9969 0.000379945 0.0577801 25.0021 0.000439525 0.0627918 25.0051 0.000286986
0.0421806 25.0089 0.000329396 0.0444624 25.0069 0.000502612 0.0665204 25.0115 0.000604631 0.0690151
25.0124 0.000381425 0.0457642 25.0154 0.000474128 0.0468102 25.0155 0.000738984 0.0706735 25.0212
0.000431985 0.0296076 25.0184 0.000886834 0.0709065 25.0175 0.000520302 0.0455363 25.0175 0.000340571
0.0308286 25.0241 0.000586584 0.0291161 25.0261 0.000716606 0.0279624 25.027 0.00081609 0.0265248
25.0275 0.000888406 0.0251661 25.028 0.000943069 0.0241058 25.0284 0.000983306 0.0234511 25.0287
0.00101716 0.023134 25.029 0.0010417 0.0230311 25 3.94701e-14 2.96255e-12 24.9999 8.26962e-06
0.000621951 24.9997 1.83447e-05 0.00155791 24.9974 4.2106e-05 0.00483408 24.9979 3.22904e-05 0.00322014
24.9997 3.08075e-05 0.00318195 24.9964 7.03717e-05 0.00983316 24.9965 5.65453e-05 0.00720084 25.0002
4.6531e-05 0.00567881 24.9972 0.000108732 0.0169503 24.9959 9.18035e-05 0.0137043 25.0017 6.56101e-05
0.00879778 25.001 0.00015235 0.0241037 24.9982 0.000136508 0.0217388 25.0047 8.68609e-05 0.0117784
25.0087 0.00010985 0.0138754 25.0034 0.000182862 0.0284198 25.0291 0.000516395 0.0128687 25.0293
0.000522076 0.0129275 25 0 0 25.0087 0.00010985 0.0138754 25.0069 0.000197483
0.0289904 25.0034 0.000182862 0.0284198 25.013 0.000136532 0.0148761 25.0128 0.000257101 0.031353
25.0099 0.000235715 0.0322021 25.0169 0.000172288 0.0150748 25.0153 0.000325805 0.0335149 25.0201
0.00022246 0.0149006 25.0227 0.000284552 0.0143963 25.0245 0.000347463 0.0136533 25.0258 0.000396551
0.0130671 25.0268 0.000429524 0.0127638 25.0275 0.000453621 0.0126393 25.028 0.000471858 0.0126219
25.0284 0.000489503 0.012674 25.0287 0.000504966 0.0127602 25.0291 0.000516395 0.0128687 25.0293
0.000522076 0.0129275 25 1.58202e-14 7.54372e-13 25.0001 7.35993e-06 0.000351614 25.0002 1.58508e-05
0.000834168 25.0002 1.58508e-05 0.000834168 25.0002 1.58508e-05 0.000834168 25.0006 2.56598e-05 0.00159472
25.0016 3.72493e-05 0.00268356 25.0033 5.07752e-05 0.00399601 25.0059 6.58015e-05 0.00525425 25.0092
8.19077e-05 0.00615319 25 0 0 25.0002 1.58508e-05 0.000834168 25.0092 8.19077e-05
0.00615319 25.0129 9.98826e-05 0.00657968 25.0164 0.000121519 0.00665812 25.0194 0.000148231 0.00651938
25.0218 0.000180105 0.00622046 25.0236 0.000212197 0.00588548 25.025 0.000239058 0.00560391 25.026
0.000259741 0.00536982 25.0267 0.000276985 0.0051496 25.0273 0.000291978 0.00495752 25.0277 0.000305558
0.00481067 25.028 0.00031733 0.0047085 25.0285 0.000327061 0.00464717 25.0288 0.000332047 0.00462078
25 1.65835e-06 0 25.0001 7.06959e-06 0 25.0002 1.58508e-05 0.000834168 25.0003
1.50253e-05 0 25.0009 2.40374e-05 0 25.0019 3.44606e-05 0 25.0037 4.64642e-05
0 25.0062 5.97674e-05 0 25.0094 7.40681e-05 0 25 1.65835e-06 0
25.0094 7.40681e-05 0 25.0128 8.96484e-05 0 25.0162 0.000107715 0 25.019
0.000128782 0 25.0214 0.000152742 0 25.0233 0.000176628 0 25.0247 0.000197408
0 25.0257 0.000214013 0 25.0265 0.000227738 0 25.0271 0.000239214 0
25.0275 0.000249081 0 25.0279 0.000257355 0 25.0284 0.000263875 0 25.0286
0.000267271 0.00110728 27.6334 -0.0608274 0.14942 25 0 0 25 0
0 27.6724 -0.0586585 0.138888 25 0 0 24.1348 0.187364 5.4041
24.0346 0.187263 5.36193 23.731 0.202624 5.58729 23.8682 0.200544 5.60299 24.7493
0.00377878 -0.155848 24.8366 0.0024119 -0.132676 22.9867 0.0691641 2.1687 23.0018 0.0667831
2.05674 23.0962 0.0637381 1.97754 25 0 0 24.6698 -0.0668415 0.103883
22.9754 0.0715121 2.28173 25 0 0 25 0 0 25.3825
-0.0877816 0.193251 25.3316 -0.0874434 0.189503 22.1615 0.0429492 4.99367 22.6881 0.0430961
5.27124 22.6875 0.0430947 5.27137 23.433 -0.201023 11.2468 23.5288 -0.225443 10.8027
23.5781 -0.216651 10.9016 23.4808 -0.191266 11.3342 24.8202 0.0021852 -0.0597559 24.7528
0.00316219 -0.0527199 24.8513 0.00149687 0.0397641 24.8561 0.00142362 0.0343647 24.8817 0.00109884
0.0191488 24.9077 0.000814421 0.0275291 24.8169 0.00320815 0.232263 24.7747 0.00422811 0.28256
24.7794 0.00366672 0.233999 24.8144 0.00291944 0.200401 24.3139 0.158324 4.85209 24.2046
0.181489 5.33297 24.3477 0.152644 4.7716 24.7751 0.00451628 0.306426 23.1291 0.0610169
1.86117 23.3272 0.0545489 1.69911 24.8568 0.00148019 0.0609463 24.8347 0.001756 0.0586171
24.7756 0.00481746 0.331044 24.8639 0.00825616 0.576189 24.8524 0.00781924 0.552801 24.8719
0.0060399 0.458643 26.4753 -0.010594 -0.228997 26.4967 -0.0108394 -0.230474 25.5634 -0.00408177
-0.0867558 22.684 0.0445202 4.45951 23.1822 0.0451554 4.7471 22.1506 0.0429462 4.98792
21.6568 0.0427434 4.74483 24.4426 0.00959991 -1.3072 24.3501 0.0100382 -1.45037 24.596
0.00720576 -1.55 24.6653 0.00716015 -1.35957 24.5954 0.00800632 -1.31993 23.6201 0.0389467
4.17011 23.0419 0.0375488 3.86082 24.3389 0.0111381 -1.20169 24.2791 0.0118726 -1.17956
24.1407 0.0128266 -1.32068 23.7195 0.0456562 5.0284 24.2399 0.0402562 4.52967 23.4
-0.161423 11.6928 23.3949 -0.15955 11.7153 23.3494 -0.169371 11.6417 23.3527 -0.170608
11.6262 26.2098 -0.00753288 -0.210663 25 0 0 25 0 0
24.4776 0.00943409 -1.25304 24.2302 0.0138976 0.0693742 24.0907 0.0174777 0.163131 23.9723
0.0202196 0.115557 24.1487 0.0158264 0.0156163 24.0295 0.125427 4.76392 23.9953 0.123976
4.73489 24.0224 0.118155 4.51837 24.0595 0.11879 4.50861 25 0 0
25.0163 0.000114955 -0.0121162 25.0275 0.000163384 -0.0208991 25 0 0 25.0678
6.11616e-05 -0.0256144 25.1491 0.000134449 -0.0563193 25.1593 0.000112716 -0.0609365 24.9959 0.000175918
-0.0250523 24.986 0.000200415 -0.0238655 24.9753 0.000328458 -0.0348399 24.9909 0.000286595 -0.0390276
23.7195 0.192811 5.3771 22.5518 0.221479 5.74617 22.9486 0.21671 5.72106 25
0 0 24.8914 0.0015998 -0.108616 24.8756 0.00160053 -0.083452 25 0
0 25.9748 -0.00512546 -0.182097 24.9726 0.00243336 -0.310967 25.0386 0.00196976 -0.322068
25.1068 0.00136749 -0.298094 25.0844 0.00096015 -0.199907 24.9992 0.00154032 -0.214406 24.7302
0.00654147 -1.35884 24.8957 0.00496475 -1.35696 24.9439 0.00492421 -1.01533 24.6593 0.0079287
-0.954934 25 0 0 24.8419 -0.0668014 0.783868 23.0706 -0.0434476 10.2037
23.0865 -0.0458547 10.7803 23.1806 0.13449 9.31495 24.2744 0.0119496 -1.17361 23.3077
-0.179666 11.5696 23.3098 -0.180465 11.5591 24.9242 0.00202072 -0.202221 24.8604 0.00327108
-0.279629 24.9054 0.00301823 -0.309579 24.2996 0.0122985 -0.0495456 24.3534 0.0109646 0.00529033
24.1649 0.0137353 -1.03592 24.4319 0.0107378 -0.824286 25.2834 -0.0870525 0.185732 25
0 0 23.6732 -0.313914 7.63288 23.7818 -0.297321 7.14742 23.7509 -0.301268
7.24093 23.6356 -0.318373 7.74658 23.3901 -0.210826 11.1604 23.485 -0.234142 10.7045
23.5103 -0.334688 8.28389 23.5448 -0.331325 8.1771 24.0861 0.121819 4.57315 24.0617
0.127258 4.79145 20.1229 0.0970865 3.85142 20.0443 0.0996692 4.13886 19.7451 0.096758
4.22419 19.834 0.0943541 3.92429 25.7397 -0.0986457 13.3228 26.1191 -0.0970187 13.4685
26.0248 -0.0841356 14.0791 25.588 -0.0840527 13.8659 20.8749 0.14734 9.11542 21.1633
0.151695 9.34825 20.9712 0.14986 9.95446 20.5946 0.144553 9.66883 24.1148 0.105689
4.03564 23.9924 0.115933 4.44965 24.054 0.103339 3.97909 20.4039 0.0990005 3.76657
20.3344 0.101738 4.04017 23.3007 0.101205 3.89536 23.2977 0.101412 3.90361 23.2511
0.0996627 3.81499 23.3243 0.095068 3.63184 23.3262 0.0950954 3.63358 21.3699 0.153359
8.81674 21.1298 0.14925 8.60291 23.3798 0.0958814 3.68344 26.6269 -0.151695 4.78516
26.7576 -0.149956 4.78907 26.6126 -0.157466 5.14018 25.116 -0.162677 4.05549 25.0497
-0.172527 4.40282 24.9956 -0.172005 4.33086 25.0621 -0.162107 3.9897 26.5902 -0.158907
5.21062 26.4565 -0.1607 5.19629 26.4816 -0.153446 4.77185 24.5349 0.0112179 0.562472
24.4626 0.0135145 0.644709 24.4705 0.0122501 0.566534 24.531 0.0105258 0.508608 24.6326
0.00580144 0.219384 24.63 0.0058694 0.223355 24.5274 0.00794072 0.256885 24.54 0.00757723
0.233729 24.5238 0.0125554 0.640515 24.4616 0.0147873 0.723414 24.6434 0.0184159 1.0116
24.5997 0.0226605 1.18363 24.5721 0.0217073 1.13506 24.614 0.0181923 0.992934 24.3075
0.0121194 0.108968 24.1973 0.0150155 0.194648 24.6804 0.00453044 0.14568 24.5579 0.007056
0.20093 24.6043 0.0059562 0.152013 29.5735 -0.104898 3.589 29.3313 -0.101356 3.25484
29.4618 -0.0971468 3.02102 29.7249 -0.100474 3.33218 19.1519 0.0151865 -5.2183 19.2231
0.0178058 -4.48956 18.5394 0.0188238 -4.34008 18.2853 0.0162502 -5.11957 28.4454 -0.0328615
-0.993955 28.7349 -0.0328136 -1.40876 29.3604 -0.0403985 -1.0084 28.9165 -0.0398328 -0.660762
25.9458 -0.00484991 -1.42654 25.9853 -0.00527812 -1.45204 26.0244 -0.00562911 -1.42285 19.8607
0.0169058 -4.49891 19.9184 0.0142086 -5.16297 27.9649 -0.0267341 -1.19787 28.1104 -0.0262524
-1.62498 20.2032 0.0944391 3.579 19.9249 0.0919126 3.63952 19.3229 0.0201732 -3.90202
18.7555 0.0211972 -3.71869 19.8588 0.0192361 -3.97723 29.1845 -0.105473 3.47115 29.4061
-0.109201 3.82448 25.9037 -0.114327 12.783 26.2533 -0.111733 12.8899 26.6097 -0.158645
5.21271 26.7781 -0.149685 4.78968 26.7698 -0.15637 5.21977 25.409 -0.100939 13.1604
25.5855 -0.117565 12.6521 17.1187 0.0588022 3.9372 17.4943 0.0626457 3.95612 17.352
0.0647141 4.30411 17.0128 0.0609841 4.27532 17.0443 0.0595371 4.11412 28.9415 -0.102378
13.3819 28.8771 -0.102735 13.2706 28.0039 -0.099857 13.1461 28.4127 -0.0991243 13.4164
15.8434 0.0869976 6.88105 15.6061 0.0859042 6.76089 15.8117 0.0836762 6.58155 16.0226
0.0848046 6.67672 25.2179 -0.0847878 13.6471 19.6651 0.200026 8.71112 19.6906 0.198189
8.7593 19.8447 0.183002 9.23223 19.6358 0.183529 9.10852 21.4958 0.156967 9.57391
21.2878 0.155737 10.1554 25.9305 -0.00431202 -0.890291 25.6828 -0.00198151 -1.14232 25.7803
-0.0030567 -1.31976 26.1889 -0.00710563 -1.30008 26.2743 -0.00786395 -1.10046 22.1076 0.0560189
0.550888 21.8248 0.0617918 0.821815 21.5155 0.0610024 0.710959 21.8476 0.055739 0.416415
23.5982 0.0265231 -0.271477 23.5237 0.0257292 -0.544378 23.9227 0.0191137 -0.531124 23.9357
0.0196934 -0.332842 22.1797 0.0503701 0.17393 22.3912 0.0503921 0.325857 19.3335 0.115868
6.73395 19.738 0.119496 6.51285 19.7782 0.12305 6.90871 19.3556 0.119467 7.16894
17.7175 0.0932539 13.8764 18.3577 0.10639 15.0539 18.6661 0.124971 15.6602 18.1123
0.116764 14.41 15.6369 0.0892091 7.09933 16.0706 0.0881884 6.98158 15.875 0.0903878
7.21784 20.4753 0.0962809 3.50658 23.5935 0.0331072 0.691306 23.5111 0.0365972 0.821704
23.3635 0.0402263 0.859042 23.4596 0.0363794 0.714053 22.3565 0.0550768 0.644925 22.114
0.0608206 0.896094 29.1372 -0.10527 13.2418 29.226 -0.106268 13.2005 31.8118 -0.116062
6.83361 32.2011 -0.114956 7.48351 31.7415 -0.118782 7.84566 31.4014 -0.120194 7.19358
28.8272 -0.14447 9.19746 28.7388 -0.148167 8.58631 29.0826 -0.144146 8.47924 29.1946
-0.140625 9.09694 23.4111 0.098302 3.79392 23.4119 0.0983706 3.79705 23.3459 0.103121
3.98807 19.8922 0.213702 8.40542 20.0196 0.216273 8.41833 21.6214 0.157712 8.99872
28.906 -0.101867 13.476 28.5896 -0.0984858 13.6029 17.653 0.0692939 13.5399 18.0876
0.0821393 14.3751 15.3697 0.0881926 6.93861 19.1359 -0.108045 9.06121 19.136 -0.108045
9.06122 22.5487 -0.111445 10.6845 24.3433 -0.109292 11.3055 23.5969 -0.111714 10.8815
31.1998 0.0661891 14.3666 30.7376 0.0694424 14.8808 29.8519 0.0656015 14.2825 30.7374
0.0650442 14.0715 17.3534 0.0813028 13.0703 17.5867 0.104548 13.341 20.8482 0.201785
9.10346 20.0478 0.199631 9.24812 20.1805 0.197182 9.31824 21.1167 0.19552 9.24183
22.4421 0.0351003 12.8499 21.9433 0.0334746 12.8006 20.4983 0.0593786 11.9076 21.3486
0.0557567 12.198 19.1359 -0.108045 9.0612 17.9682 0.148462 10.512 16.8617 0.158653
9.88715 15.2886 0.162238 9.62793 15.4735 0.155502 9.59927 17.8667 0.118816 9.89057
18.0295 0.121274 10.3403 17.5437 0.119388 10.6178 17.3949 0.116762 10.0882 25
0 0 25 0 0 26.5296 -0.0843336 0.228821 26.4438 -0.0852111
0.228531 26.637 -0.144638 4.3778 26.7664 -0.143026 4.37995 25.374 -0.00438359 -0.00768857
25.956 -0.0120293 -0.00627379 25 0 0 25 0 0 29.1196
-0.0977305 2.94904 29.2324 -0.0937383 2.73653 28.2033 -0.0324365 -0.693769 28.5655 -0.0387959
-0.420153 28.9912 -0.101642 3.14698 26.7806 -0.142849 4.38019 27.4442 -0.0286477 -0.0502457
27.5781 -0.0324407 -0.0169191 25.0486 -0.000530165 -0.0016638 25 0 0 26.4097
-0.00936416 -0.758285 26.4114 -0.00938302 -0.753975 26.081 -0.00580561 -0.650452 26.0805 -0.005801
-0.651192 27.8264 -0.0267839 -0.876294 17.6552 0.0611165 3.58151 17.1417 0.057574 3.73505
17.2482 0.0570484 3.51844 16.8631 0.0376601 1.24996 16.8799 0.0374864 1.06256 17.0387
0.0378253 1.04881 17.0221 0.038107 1.22118 18.8454 0.0527673 1.35542 19.1106 0.0561275
1.46001 18.9114 0.0567665 1.71368 18.6448 0.0531428 1.6042 18.8715 -0.109291 8.82949
23.0838 -0.113665 10.5681 27.2856 -0.0249488 -0.0782829 23.5593 0.0328475 0.584316 23.6785
0.0299746 0.574709 23.9898 0.0190944 -0.1767 23.7156 0.0253263 -0.0889477 22.5983 0.0494926
0.430936 18.8715 -0.109291 8.82949 17.8658 0.0669787 3.9951 17.7153 0.0688835 4.34096
19.732 0.116247 6.133 19.3495 0.112674 6.31894 16.2338 0.0860437 6.76097 20.1347
0.134669 8.1251 20.3452 0.13875 8.49756 19.9672 0.135792 8.98128 19.7222 0.13156
8.55299 18.8359 0.152466 10.59 19.5435 0.143815 11.102 18.2626 0.120953 9.68083
18.4212 0.123189 10.0545 20.1082 0.122215 6.27397 20.1576 0.125747 6.63585 22.4428
0.13621 5.74527 22.5402 0.139 5.88466 22.4043 0.14364 6.23716 22.2955 0.140663
6.08854 21.7647 0.119377 4.75899 21.9666 0.116544 4.51711 22.0062 0.119304 4.71054
21.8083 0.122392 4.96919 29.0018 -0.104125 13.2735 26.4221 -0.184773 8.79115 26.6663
-0.179829 8.82737 26.6333 -0.176237 9.40761 26.3753 -0.181497 9.36561 28.4053 -0.15225
8.68017 28.4732 -0.148415 9.2855 17.5586 0.0597502 13.062 23.8928 -0.108061 12.3905
24.028 -0.133306 12.0471 24.1538 -0.126903 12.1807 24.0066 -0.103054 12.5279 22.9671
0.019805 13.122 22.7663 0.0167789 13.2268 17.3635 0.0978176 7.22436 17.8948 0.102328
7.18896 17.7895 0.106045 7.74655 17.4695 0.104058 7.8403 17.1598 0.101682 7.79964
17.2119 0.0993616 7.50379 17.7592 0.116426 9.4544 17.3149 0.114246 9.59881 25.6969
-0.107915 11.6346 26.4415 -0.104685 12.0482 29.0315 -0.127382 11.1153 29.4388 -0.125206
11.0492 29.4493 -0.118015 11.6849 29.033 -0.119714 11.7472 30.8679 -0.117999 10.742
30.9469 -0.114518 11.1288 30.6577 -0.115757 11.1794 30.6143 -0.118913 10.8615 23.8523
-0.0422648 15.0242 23.6072 -0.0403506 15.0767 21.4938 -0.0139641 14.652 22.0624 -0.0203612
14.6811 22.5078 -0.0121905 14.0997 22.5792 0.0167518 14.6152 21.9312 0.00340807 14.4106
22.4356 -0.0195143 14.2881 26.5481 -0.0999249 12.5359 27.7918 -0.100694 12.9117 27.4965
-0.100378 12.8974 25.8236 -0.101077 12.3972 31.4211 0.0453396 9.61818 31.3637 0.046387