# vtk DataFile Version 2.0
track0
ASCII
DATASET POLYDATA
POINTS 15810 float
-1.001 -0.05 0.0011
-1.0008 -0.05 0.0011
-1.0006 -0.05 0.0011
-1.0004 -0.05 0.00109999
-1.0002 -0.05 0.00109999
-1 -0.05 0.00109999
-0.9875 -0.0500001 0.00109985
-0.975 -0.0500002 0.00109981
-0.9625 -0.0500003 0.00109977
-0.95 -0.0500005 0.00109973
-0.9375 -0.0500006 0.00109968
-0.925 -0.0500006 0.00109955
-0.9125 -0.0500007 0.0010995
-0.9 -0.0500008 0.00109945
-0.8875 -0.0500009 0.0010994
-0.875 -0.050001 0.00109935
-0.8625 -0.0500009 0.00109922
-0.85 -0.050001 0.00109915
-0.8375 -0.0500011 0.00109909
-0.825 -0.0500012 0.00109903
-0.8125 -0.0500013 0.00109897
-0.8 -0.0500013 0.00109884
-0.7875 -0.0500014 0.00109877
-0.775 -0.0500015 0.0010987
-0.7625 -0.0500016 0.00109863
-0.75 -0.0500017 0.00109856
-0.7375 -0.0500016 0.00109842
-0.725 -0.0500017 0.00109834
-0.7125 -0.0500018 0.00109827
-0.7 -0.0500019 0.00109819
-0.6875 -0.050002 0.00109812
-0.675 -0.0500019 0.00109797
-0.6625 -0.050002 0.00109789
-0.65 -0.0500021 0.00109781
-0.6375 -0.0500022 0.00109773
-0.625 -0.0500023 0.00109765
-0.6125 -0.0500023 0.0010975
-0.6 -0.0500024 0.00109742
-0.5875 -0.0500025 0.00109733
-0.575 -0.0500025 0.00109725
-0.5625 -0.0500026 0.00109716
-0.55 -0.0500027 0.00109701
-0.5375 -0.0500027 0.00109693
-0.525 -0.0500028 0.00109684
-0.5125 -0.0500029 0.00109675
-0.5 -0.050003 0.00109666
-0.4875 -0.0500029 0.0010965
-0.475 -0.050003 0.0010964
-0.4625 -0.050003 0.00109631
-0.45 -0.0500031 0.00109622
-0.4375 -0.0500032 0.00109612
-0.425 -0.0500031 0.00109596
-0.4125 -0.0500032 0.00109586
-0.4 -0.0500033 0.00109577
-0.3875 -0.0500033 0.00109567
-0.375 -0.0500034 0.00109557
-0.3625 -0.0500033 0.00109541
-0.35 -0.0500034 0.0010953
-0.3375 -0.0500035 0.0010952
-0.325 -0.0500035 0.0010951
-0.3125 -0.0500036 0.001095
-0.3 -0.0500036 0.00109484
-0.2875 -0.0500037 0.00109473
-0.275 -0.0500038 0.00109463
-0.2625 -0.0500038 0.00109452
-0.25 -0.0500039 0.00109442
-0.2375 -0.0500039 0.00109425
-0.225 -0.050004 0.00109414
-0.2125 -0.0500041 0.00109403
-0.2 -0.0500041 0.00109392
-0.1875 -0.0500042 0.00109381
-0.175 -0.0500041 0.00109364
-0.1625 -0.0500042 0.00109352
-0.15 -0.0500043 0.00109341
-0.1375 -0.0500043 0.0010933
-0.125 -0.0500044 0.00109319
-0.1125 -0.0500044 0.00109301
-0.1 -0.0500045 0.00109289
-0.0875 -0.0500045 0.00109278
-0.075 -0.0500046 0.00109266
-0.0625 -0.0500046 0.00109255
-0.05 -0.0500047 0.00109237
-0.0375 -0.0500047 0.00109225
-0.025 -0.0500048 0.00109213
-0.0125 -0.0500048 0.00109201
3.21676e-12 -0.0500049 0.00109189
0.0125 -0.0500048 0.0010917
0.025 -0.0500049 0.00109158
0.0375 -0.0500049 0.00109146
0.05 -0.050005 0.00109133
0.0625 -0.050005 0.00109121
0.075 -0.0500049 0.00109102
0.0875 -0.050005 0.00109089
0.1 -0.050005 0.00109077
0.1125 -0.0500051 0.00109064
0.125 -0.0500051 0.00109051
0.1375 -0.050005 0.00109032
0.15 -0.0500051 0.00109019
0.1625 -0.0500051 0.00109006
0.175 -0.0500052 0.00108993
0.1875 -0.0500052 0.0010898
0.2 -0.0500053 0.00108961
0.2125 -0.0500053 0.00108948
0.225 -0.0500053 0.00108935
0.2375 -0.0500054 0.00108921
0.25 -0.0500054 0.00108908
0.2625 -0.0500054 0.00108888
0.275 -0.0500054 0.00108874
0.2875 -0.0500054 0.00108861
0.3 -0.0500055 0.00108848
0.3125 -0.0500055 0.00108834
0.325 -0.0500054 0.00108814
0.3375 -0.0500054 0.001088
0.35 -0.0500055 0.00108786
0.3625 -0.0500055 0.00108773
0.375 -0.0500055 0.00108759
0.3875 -0.0500056 0.00108739
0.4 -0.0500056 0.00108725
0.4125 -0.0500056 0.00108711
0.425 -0.0500057 0.00108697
0.4375 -0.0500057 0.00108683
0.45 -0.0500057 0.00108662
0.4625 -0.0500057 0.00108648
0.475 -0.0500058 0.00108634
0.4875 -0.0500058 0.0010862
0.5 -0.0500058 0.00108606
0.5125 -0.0500057 0.00108585
0.525 -0.0500058 0.0010857
0.5375 -0.0500058 0.00108556
0.55 -0.0500058 0.00108542
0.5625 -0.0500058 0.00108528
0.575 -0.0500057 0.00108506
0.5875 -0.0500057 0.00108492
0.6 -0.0500058 0.00108477
0.6125 -0.0500058 0.00108463
0.625 -0.0500058 0.00108448
0.6375 -0.0500057 0.00108427
0.65 -0.0500057 0.00108412
0.6625 -0.0500057 0.00108398
0.675 -0.0500057 0.00108383
0.6875 -0.0500058 0.00108369
0.7 -0.0500058 0.00108348
0.7125 -0.0500058 0.00108333
0.725 -0.0500058 0.00108319
0.7375 -0.0500058 0.00108304
0.75 -0.0500058 0.00108289
0.7625 -0.0500058 0.00108268
0.775 -0.0500058 0.00108253
0.7875 -0.0500058 0.00108239
0.8 -0.0500058 0.00108224
0.8125 -0.0500058 0.00108209
0.825 -0.0500057 0.00108188
0.8375 -0.0500057 0.00108173
0.85 -0.0500057 0.00108158
0.8625 -0.0500057 0.00108144
0.875 -0.0500057 0.00108129
0.8875 -0.0500057 0.00108108
0.9 -0.0500057 0.00108093
0.9125 -0.0500057 0.00108078
0.925 -0.0500057 0.00108064
0.9375 -0.0500057 0.00108049
0.95 -0.0500057 0.00108028
0.9625 -0.0500057 0.00108013
0.975 -0.0500057 0.00107999
0.9875 -0.0500057 0.00107984
1 -0.0500057 0.0010797
1.0125 -0.0500056 0.00107948
1.025 -0.0500055 0.00107934
1.0375 -0.0500055 0.00107919
1.05 -0.0500055 0.00107905
1.0625 -0.0500055 0.0010789
1.075 -0.0500054 0.00107869
1.0875 -0.0500053 0.00107854
1.1 -0.0500053 0.0010784
1.1125 -0.0500053 0.00107826
1.125 -0.0500053 0.00107811
1.1375 -0.0500051 0.0010779
1.15 -0.0500051 0.00107776
1.1625 -0.0500051 0.00107762
1.175 -0.0500051 0.00107748
1.1875 -0.050005 0.00107733
1.2 -0.050005 0.00107713
1.2125 -0.050005 0.00107699
1.225 -0.0500049 0.00107685
1.2375 -0.0500049 0.00107671
1.25 -0.0500049 0.00107657
1.2625 -0.0500048 0.00107636
1.275 -0.0500047 0.00107622
1.2875 -0.0500047 0.00107609
1.3 -0.0500046 0.00107595
1.3125 -0.0500046 0.00107581
1.325 -0.0500045 0.00107561
1.3375 -0.0500044 0.00107547
1.35 -0.0500044 0.00107533
1.3625 -0.0500043 0.0010752
1.375 -0.0500043 0.00107506
1.3875 -0.0500042 0.00107487
1.4 -0.0500042 0.00107474
1.4125 -0.0500041 0.0010746
1.425 -0.0500041 0.00107447
1.4375 -0.050004 0.00107434
1.45 -0.050004 0.00107415
1.4625 -0.0500039 0.00107402
1.475 -0.0500038 0.00107389
1.4875 -0.0500038 0.00107376
1.5 -0.0500037 0.00107362
1.5125 -0.0500036 0.00107344
1.525 -0.0500035 0.00107331
1.5375 -0.0500034 0.00107318
1.55 -0.0500034 0.00107306
1.5625 -0.0500033 0.00107293
1.575 -0.0500032 0.00107275
1.5875 -0.0500031 0.00107262
1.6 -0.050003 0.0010725
1.6125 -0.0500029 0.00107238
1.625 -0.0500028 0.00107225
1.6375 -0.0500027 0.00107207
1.65 -0.0500026 0.00107196
1.6625 -0.0500025 0.00107184
1.675 -0.0500024 0.00107172
1.6875 -0.0500023 0.0010716
1.7 -0.0500023 0.00107143
1.7125 -0.0500022 0.00107132
1.725 -0.0500021 0.0010712
1.7375 -0.050002 0.00107109
1.75 -0.0500019 0.00107097
1.7625 -0.0500019 0.00107081
1.775 -0.0500018 0.0010707
1.7875 -0.0500017 0.00107059
1.8 -0.0500015 0.00107048
1.8125 -0.0500014 0.00107037
1.825 -0.0500013 0.00107021
1.8375 -0.0500012 0.0010701
1.85 -0.0500011 0.00106999
1.8625 -0.0500009 0.00106989
1.875 -0.0500008 0.00106978
1.8875 -0.0500007 0.00106963
1.9 -0.0500006 0.00106953
1.9125 -0.0500005 0.00106943
1.925 -0.0500004 0.00106933
1.9375 -0.0500002 0.00106922
1.95 -0.0500002 0.00106908
1.9625 -0.05 0.00106898
1.975 -0.0499999 0.00106889
1.9875 -0.0499998 0.00106879
2 -0.0499996 0.0010687
2.0125 -0.0499995 0.00106856
2.025 -0.0499993 0.00106847
2.0375 -0.0499992 0.00106837
2.05 -0.049999 0.00106828
2.0625 -0.0499989 0.00106819
2.075 -0.0499987 0.00106806
2.0875 -0.0499986 0.00106798
2.1 -0.0499984 0.00106789
2.1125 -0.0499983 0.00106781
2.125 -0.0499981 0.00106773
2.1375 -0.049998 0.0010676
2.15 -0.0499978 0.00106752
2.1625 -0.0499977 0.00106745
2.175 -0.0499975 0.00106737
2.1875 -0.0499974 0.00106729
2.2 -0.0499973 0.00106718
2.2125 -0.0499971 0.00106711
2.225 -0.0499969 0.00106704
2.2375 -0.0499968 0.00106696
2.25 -0.0499966 0.00106689
2.2625 -0.0499965 0.00106678
2.275 -0.0499963 0.00106672
2.2875 -0.0499961 0.00106665
2.3 -0.0499959 0.00106659
2.3125 -0.0499958 0.00106652
2.325 -0.0499956 0.00106642
2.3375 -0.0499954 0.00106636
2.35 -0.0499952 0.0010663
2.3625 -0.0499951 0.00106624
2.375 -0.0499949 0.00106618
2.3875 -0.0499948 0.00106609
2.4 -0.0499946 0.00106603
2.4125 -0.0499944 0.00106598
2.425 -0.0499942 0.00106592
2.4375 -0.049994 0.00106587
2.45 -0.0499939 0.00106578
2.4625 -0.0499937 0.00106573
2.475 -0.0499935 0.00106568
2.4875 -0.0499933 0.00106563
2.5 -0.0499931 0.00106558
2.5125 -0.0499929 0.00106551
2.525 -0.0499927 0.00106546
2.5375 -0.0499925 0.00106542
2.55 -0.0499923 0.00106537
2.5625 -0.049992 0.00106533
2.575 -0.0499919 0.00106526
2.5875 -0.0499916 0.00106522
2.6 -0.0499914 0.00106518
2.6125 -0.0499912 0.00106514
2.625 -0.049991 0.0010651
2.6375 -0.0499908 0.00106504
2.65 -0.0499906 0.00106501
2.6625 -0.0499904 0.00106497
2.675 -0.0499901 0.00106494
2.6875 -0.0499899 0.00106491
2.7 -0.0499898 0.00106486
2.7125 -0.0499895 0.00106483
2.725 -0.0499893 0.0010648
2.7375 -0.0499891 0.00106477
2.75 -0.0499889 0.00106474
2.7625 -0.0499887 0.0010647
2.775 -0.0499885 0.00106468
2.7875 -0.0499882 0.00106465
2.8 -0.049988 0.00106463
2.8125 -0.0499877 0.00106461
2.825 -0.0499876 0.00106457
2.8375 -0.0499873 0.00106455
2.85 -0.049987 0.00106453
2.8625 -0.0499868 0.00106451
2.875 -0.0499865 0.00106449
2.8875 -0.0499863 0.00106447
2.9 -0.0499861 0.00106445
2.9125 -0.0499858 0.00106444
2.925 -0.0499856 0.00106443
2.9375 -0.0499853 0.00106441
2.95 -0.0499851 0.00106439
2.9625 -0.0499848 0.00106438
2.975 -0.0499846 0.00106437
2.9875 -0.0499843 0.00106436
3 -0.049984 0.00106435
3.0125 -0.0499838 0.00106434
3.025 -0.0499836 0.00106434
3.0375 -0.0499833 0.00106433
3.05 -0.049983 0.00106433
3.0625 -0.0499827 0.00106432
3.075 -0.0499825 0.00106432
3.0875 -0.0499823 0.00106432
3.1 -0.049982 0.00106432
3.1125 -0.0499817 0.00106432
3.125 -0.0499814 0.00106432
3.1375 -0.0499812 0.00106432
3.15 -0.0499809 0.00106433
3.1625 -0.0499807 0.00106433
3.175 -0.0499804 0.00106434
3.1875 -0.0499801 0.00106434
3.2 -0.0499799 0.00106435
3.2125 -0.0499796 0.00106436
3.225 -0.0499793 0.00106437
3.2375 -0.049979 0.00106438
3.25 -0.0499787 0.00106439
3.2625 -0.0499785 0.00106441
3.275 -0.0499782 0.00106442
3.2875 -0.0499779 0.00106444
3.3 -0.0499776 0.00106445
3.3125 -0.0499773 0.00106447
3.325 -0.0499772 0.00106449
3.3375 -0.0499769 0.00106451
[...]
POINT_DATA 15810
 FIELD attributes 1
U 3 15810 float
20.0048 	-0.000125185 	-0.000189682 20.0047 	-0.000121179 	-0.000195035 20.0046 	-0.000117172 	-0.000200388 20.0046 	-0.000113166 	-0.000205742 20.0045 	-0.00010916 	-0.000211095 20.0044 	-0.000105154 	-0.000216448 20.0086 	-0.00021931 	-6.82744e-05 20.0086 	-0.000219302 	-6.82718e-05 20.0086 	-0.000219293 	-6.82691e-05 20.0086 	-0.000219285 	-6.82665e-05 20.0047 	8.87363e-05 	-0.000206789 20.0092 	-0.000170202 	-8.34607e-05 20.0092 	-0.000170194 	-8.34567e-05 20.0092 	-0.000170185 	-8.34528e-05 20.0092 	-0.000170177 	-8.34488e-05 20.0049 	9.09953e-05 	-0.000208147 20.0098 	-0.00014743 	-9.91492e-05 20.0098 	-0.000147421 	-9.91436e-05 20.0098 	-0.000147413 	-9.9138e-05 20.0098 	-0.000147405 	-9.91324e-05 20.0052 	-6.41746e-05 	-0.00020591 20.0104 	-0.000138008 	-0.000111736 20.0104 	-0.000138 	-0.000111729 20.0104 	-0.000137991 	-0.000111721 20.0104 	-0.000137982 	-0.000111714 20.0055 	9.45423e-05 	-0.000224317 20.011 	-0.000138901 	-0.000121664 20.011 	-0.000138891 	-0.000121656 20.011 	-0.000138881 	-0.000121647 20.011 	-0.000138872 	-0.000121639 20.0058 	9.53476e-05 	-0.000231932 20.0116 	-0.000134663 	-0.000129971 20.0116 	-0.000134653 	-0.000129962 20.0116 	-0.000134643 	-0.000129952 20.0116 	-0.000134633 	-0.000129942 20.0062 	-6.32494e-05 	-0.000228011 20.0123 	-0.000131581 	-0.000137194 20.0123 	-0.00013157 	-0.000137183 20.0123 	-0.00013156 	-0.000137172 20.0123 	-0.00013155 	-0.000137162 20.0065 	-6.25551e-05 	-0.000235 20.013 	-0.000124815 	-0.00014359 20.013 	-0.000124805 	-0.000143579 20.013 	-0.000124795 	-0.000143567 20.013 	-0.000124785 	-0.000143555 20.0069 	0.00010463 	-0.000252534 20.0137 	-0.000115153 	-0.000149773 20.0137 	-0.000115144 	-0.00014976 20.0137 	-0.000115134 	-0.000149748 20.0137 	-0.000115124 	-0.000149735 20.0072 	0.000108855 	-0.000259133 20.0144 	-0.000112323 	-0.000156196 20.0144 	-0.000112313 	-0.000156182 20.0144 	-0.000112303 	-0.000156168 20.0144 	-0.000112293 	-0.000156154 20.0076 	0.000111528 	-0.000265718 20.0152 	-0.00010975 	-0.000162237 20.0152 	-0.00010974 	-0.000162222 20.0152 	-0.00010973 	-0.000162207 20.0152 	-0.00010972 	-0.000162192 20.008 	-5.82033e-05 	-0.000262522 20.016 	-0.000107058 	-0.000168088 20.016 	-0.000107047 	-0.000168072 20.016 	-0.000107037 	-0.000168056 20.016 	-0.000107027 	-0.000168039 20.0084 	-5.8031e-05 	-0.000269139 20.0169 	-0.00010352 	-0.000174024 20.0169 	-0.00010351 	-0.000174006 20.0169 	-0.0001035 	-0.000173989 20.0169 	-0.00010349 	-0.000173972 20.0088 	0.000120042 	-0.000285247 20.0177 	-9.54382e-05 	-0.000180053 20.0177 	-9.54284e-05 	-0.000180034 20.0177 	-9.54186e-05 	-0.000180016 20.0177 	-9.54088e-05 	-0.000179997 20.0093 	-5.54165e-05 	-0.000282148 20.0186 	-9.25636e-05 	-0.000185632 20.0186 	-9.25537e-05 	-0.000185612 20.0186 	-9.25439e-05 	-0.000185593 20.0186 	-9.25341e-05 	-0.000185573 20.0097 	-5.43398e-05 	-0.000288431 20.0195 	-8.72936e-05 	-0.000191033 20.0195 	-8.72841e-05 	-0.000191013 20.0195 	-8.72745e-05 	-0.000190992 20.0195 	-8.7265e-05 	-0.000190971 20.0102 	0.000129079 	-0.000303385 20.0204 	-8.22797e-05 	-0.000195947 20.0204 	-8.22705e-05 	-0.000195925 20.0204 	-8.22612e-05 	-0.000195903 20.0204 	-8.2252e-05 	-0.000195881 20.0107 	0.000132685 	-0.000309122 20.0214 	-7.87028e-05 	-0.000201429 20.0214 	-7.86937e-05 	-0.000201406 20.0214 	-7.86847e-05 	-0.000201382 20.0214 	-7.86756e-05 	-0.000201359 20.0111 	0.000135634 	-0.000314691 20.0224 	-7.49573e-05 	-0.000206394 20.0224 	-7.49484e-05 	-0.000206369 20.0224 	-7.49396e-05 	-0.000206345 20.0224 	-7.49307e-05 	-0.000206321 20.0117 	-4.86411e-05 	-0.000311196 20.0234 	-7.18462e-05 	-0.000211006 20.0234 	-7.18375e-05 	-0.000210981 20.0234 	-7.18288e-05 	-0.000210955 20.0234 	-7.18201e-05 	-0.00021093 20.0122 	0.000140552 	-0.000324715 20.0244 	-5.92357e-05 	-0.000215297 20.0244 	-5.92284e-05 	-0.00021527 20.0244 	-5.92211e-05 	-0.000215244 20.0244 	-5.92138e-05 	-0.000215217 20.0127 	0.000144134 	-0.000329125 20.0255 	-5.42097e-05 	-0.000219327 20.0255 	-5.42029e-05 	-0.0002193 20.0255 	-5.41961e-05 	-0.000219272 20.0255 	-5.41893e-05 	-0.000219245 20.0132 	-4.13063e-05 	-0.000324762 20.0265 	-4.98538e-05 	-0.0002229 20.0265 	-4.98475e-05 	-0.000222871 20.0265 	-4.98411e-05 	-0.000222843 20.0265 	-4.98347e-05 	-0.000222814 20.0138 	-3.90277e-05 	-0.000328476 20.0276 	-4.40274e-05 	-0.000226316 20.0276 	-4.40217e-05 	-0.000226286 20.0276 	-4.4016e-05 	-0.000226257 20.0276 	-4.40103e-05 	-0.000226227 20.0143 	0.000152314 	-0.000339817 20.0287 	-3.37313e-05 	-0.000228858 20.0287 	-3.37269e-05 	-0.000228828 20.0287 	-3.37225e-05 	-0.000228798 20.0287 	-3.3718e-05 	-0.000228768 20.0149 	0.000155544 	-0.000342319 20.0298 	-2.82351e-05 	-0.000231197 20.0298 	-2.82313e-05 	-0.000231167 20.0298 	-2.82276e-05 	-0.000231136 20.0298 	-2.82238e-05 	-0.000231105 20.0154 	0.000157584 	-0.000344287 20.0309 	-2.28975e-05 	-0.000232919 20.0309 	-2.28944e-05 	-0.000232888 20.0309 	-2.28914e-05 	-0.000232857 20.0309 	-2.28883e-05 	-0.000232825 20.016 	-2.40815e-05 	-0.000337821 20.0321 	-1.71946e-05 	-0.000234324 20.0321 	-1.71923e-05 	-0.000234292 20.0321 	-1.719e-05 	-0.000234261 20.0321 	-1.71877e-05 	-0.000234229 20.0166 	-2.04693e-05 	-0.000338686 20.0332 	-1.06882e-05 	-0.000235114 20.0332 	-1.06868e-05 	-0.000235082 20.0332 	-1.06853e-05 	-0.00023505 20.0332 	-1.06839e-05 	-0.000235018 20.0171 	0.000165745 	-0.000346595 20.0343 	2.81051e-06 	-0.000235665 20.0343 	2.81013e-06 	-0.000235633 20.0343 	2.80974e-06 	-0.000235601 20.0343 	2.80936e-06 	-0.000235569 20.0177 	-9.03821e-06 	-0.000338535 20.0355 	8.9437e-06 	-0.000235443 20.0355 	8.94249e-06 	-0.000235411 20.0355 	8.94127e-06 	-0.00023538 20.0355 	8.94006e-06 	-0.000235348 20.0183 	-2.81875e-06 	-0.000337432 20.0366 	2.25975e-05 	-0.000234538 20.0366 	2.25945e-05 	-0.000234506 20.0366 	2.25914e-05 	-0.000234475 20.0366 	2.25884e-05 	-0.000234443 20.0189 	0.00017809 	-0.000342734 20.0378 	3.22343e-05 	-0.000232816 20.0378 	3.223e-05 	-0.000232785 20.0378 	3.22256e-05 	-0.000232754 20.0377 	3.22213e-05 	-0.000232722 20.0194 	0.000181149 	-0.000339982 20.0389 	3.96872e-05 	-0.000230776 20.0389 	3.96819e-05 	-0.000230746 20.0389 	3.96766e-05 	-0.000230715 20.0389 	3.96713e-05 	-0.000230684 20.02 	0.000183323 	-0.000336606 20.04 	4.74747e-05 	-0.000228347 20.04 	4.74684e-05 	-0.000228317 20.04 	4.74621e-05 	-0.000228287 20.04 	4.74558e-05 	-0.000228257 20.0206 	2.22649e-05 	-0.000325716 20.0411 	5.3348e-05 	-0.000225319 20.0411 	5.3341e-05 	-0.00022529 20.0411 	5.3334e-05 	-0.00022526 20.0411 	5.33271e-05 	-0.000225231 20.0212 	0.000188893 	-0.000327857 20.0422 	7.02475e-05 	-0.000222121 20.0422 	7.02385e-05 	-0.000222092 20.0422 	7.02294e-05 	-0.000222064 20.0422 	7.02204e-05 	-0.000222035 20.0217 	0.000193567 	-0.000322453 20.0433 	8.05858e-05 	-0.000218311 20.0433 	8.05756e-05 	-0.000218283 20.0433 	8.05654e-05 	-0.000218255 20.0433 	8.05552e-05 	-0.000218228 20.0223 	4.48391e-05 	-0.000309851 20.0444 	9.05689e-05 	-0.000213799 20.0444 	9.05576e-05 	-0.000213772 20.0444 	9.05464e-05 	-0.000213746 20.0444 	9.05352e-05 	-0.000213719 20.0228 	5.3425e-05 	-0.000303186 20.0454 	0.000106533 	-0.000209251 20.0454 	0.00010652 	-0.000209226 20.0454 	0.000106507 	-0.000209201 20.0454 	0.000106494 	-0.000209175 20.0233 	0.000205791 	-0.000302143 20.0465 	0.000120263 	-0.000203357 20.0464 	0.000120249 	-0.000203333 20.0464 	0.000120235 	-0.000203309 20.0464 	0.00012022 	-0.000203285 20.0238 	0.000209181 	-0.000294043 20.0475 	0.000130548 	-0.000197638 20.0474 	0.000130533 	-0.000197616 20.0474 	0.000130518 	-0.000197593 20.0474 	0.000130503 	-0.00019757 20.0243 	0.000211411 	-0.000285397 20.0484 	0.000140817 	-0.000190959 20.0484 	0.000140801 	-0.000190938 20.0484 	0.000140786 	-0.000190916 20.0484 	0.00014077 	-0.000190895 20.0249 	8.84062e-05 	-0.000270089 20.0494 	0.000148293 	-0.000184347 20.0494 	0.000148277 	-0.000184327 20.0494 	0.000148262 	-0.000184307 20.0493 	0.000148246 	-0.000184287 20.0253 	9.78724e-05 	-0.0002605 20.0503 	0.000168228 	-0.000177271 20.0503 	0.000168211 	-0.000177252 20.0503 	0.000168193 	-0.000177234 20.0503 	0.000168176 	-0.000177216 20.0258 	0.000224829 	-0.000256374 20.0512 	0.000191234 	-0.000170493 20.0511 	0.000191215 	-0.000170476 20.0511 	0.000191196 	-0.000170459 20.0511 	0.000191177 	-0.000170442 20.0262 	0.0001216 	-0.000240302 20.052 	0.000203156 	-0.00016288 20.052 	0.000203136 	-0.000162864 20.052 	0.000203117 	-0.000162849 20.052 	0.000203098 	-0.000162833 20.0267 	0.000131385 	-0.000229636 20.0528 	0.000215627 	-0.000154807 20.0528 	0.000215608 	-0.000154793 20.0528 	0.000215588 	-0.000154779 20.0528 	0.000215569 	-0.000154765 20.0271 	0.000236943 	-0.000223568 20.0536 	0.000230728 	-0.000145157 20.0536 	0.000230709 	-0.000145145 20.0536 	0.000230689 	-0.000145132 20.0536 	0.000230669 	-0.00014512 20.0274 	0.00024032 	-0.00021186 20.0543 	0.000241326 	-0.000134314 20.0543 	0.000241307 	-0.000134304 20.0543 	0.000241288 	-0.000134293 20.0543 	0.000241269 	-0.000134283 20.0278 	0.000242279 	-0.000199879 20.055 	0.000251633 	-0.000124186 20.055 	0.000251614 	-0.000124177 20.055 	0.000251596 	-0.000124168 20.055 	0.000251578 	-0.000124159 20.0282 	0.000167652 	-0.000182875 20.0556 	0.00025783 	-0.000114665 20.0556 	0.000257813 	-0.000114657 20.0556 	0.000257795 	-0.00011465 20.0556 	0.000257778 	-0.000114642 20.0285 	0.00024776 	-0.000175143 20.0562 	0.000281216 	-0.000105912 20.0562 	0.000281199 	-0.000105905 20.0562 	0.000281181 	-0.000105898 20.0562 	0.000281164 	-0.000105892 20.0288 	0.00025317 	-0.000162326 20.0568 	0.000293252 	-9.70878e-05 20.0568 	0.000293236 	-9.70823e-05 20.0568 	0.000293219 	-9.70768e-05 20.0568 	0.000293203 	-9.70713e-05 20.0291 	0.000196847 	-0.000144959 20.0573 	0.000303359 	-8.81519e-05 20.0573 	0.000303344 	-8.81473e-05 20.0573 	0.000303328 	-8.81428e-05 20.0573 	0.000303312 	-8.81382e-05 20.0294 	0.000207802 	-0.000132052 20.0578 	0.000325996 	-7.98346e-05 20.0578 	0.000325981 	-7.98309e-05 20.0578 	0.000325966 	-7.98271e-05 20.0578 	0.000325951 	-7.98234e-05 20.0296 	0.000266932 	-0.000123251 20.0582 	0.000341751 	-7.14212e-05 20.0582 	0.000341737 	-7.14182e-05 20.0582 	0.000341723 	-7.14152e-05 20.0582 	0.000341709 	-7.14122e-05 20.0298 	0.000270006 	-0.000110116 20.0586 	0.000351902 	-6.29721e-05 20.0586 	0.000351889 	-6.29698e-05 20.0586 	0.000351876 	-6.29675e-05 20.0586 	0.000351863 	-6.29652e-05 20.03 	0.000271466 	-9.70432e-05 20.0589 	0.000361418 	-5.45764e-05 20.0589 	0.000361406 	-5.45747e-05 20.0589 	0.000361395 	-5.4573e-05 20.0589 	0.000361383 	-5.45712e-05 20.0302 	0.000243066 	-7.99663e-05 20.0592 	0.000367286 	-4.62711e-05 20.0592 	0.000367276 	-4.62699e-05 20.0592 	0.000367266 	-4.62686e-05 20.0592 	0.000367256 	-4.62674e-05 20.0303 	0.000252897 	-6.70155e-05 20.0595 	0.00038779 	-3.77462e-05 20.0595 	0.000387782 	-3.77454e-05 20.0595 	0.000387773 	-3.77446e-05 20.0595 	0.000387765 	-3.77437e-05 20.0305 	0.000284159 	-5.8262e-05 20.0597 	0.000413308 	-3.02025e-05 20.0597 	0.0004133 	-3.0202e-05 20.0597 	0.000413293 	-3.02015e-05 20.0597 	0.000413286 	-3.02009e-05 20.0306 	0.000277798 	-4.18103e-05 20.0599 	0.000423422 	-2.23272e-05 20.0599 	0.000423416 	-2.23269e-05 20.0599 	0.000423411 	-2.23266e-05 20.0599 	0.000423405 	-2.23263e-05 20.0307 	0.000291768 	-3.33868e-05 20.06 	0.00043667 	-1.48682e-05 20.06 	0.000436666 	-1.48681e-05 20.06 	0.000436662 	-1.48679e-05 20.06 	0.000436658 	-1.48678e-05 20.0307 	0.000293996 	-2.12739e-05 20.0601 	0.00044538 	-6.91706e-06 20.0601 	0.000445378 	-6.91704e-06 20.0601 	0.000445376 	-6.91701e-06 20.0601 	0.000445374 	-6.91698e-06 20.0308 	0.00029534 	-9.63248e-06 20.0601 	0.000453511 	5.95508e-07 20.0601 	0.000453511 	5.95508e-07 20.0601 	0.000453511 	5.95508e-07 20.0601 	0.000453512 	5.95508e-07 20.0308 	0.000296634 	1.62499e-06 20.0601 	0.000460572 	9.00959e-06 20.0601 	0.000460575 	9.00964e-06 20.0601 	0.000460577 	9.00968e-06 20.0601 	0.00046058 	9.00973e-06 20.0308 	0.000312588 	1.66541e-05 20.0601 	0.000467347 	1.66282e-05 20.0601 	0.000467351 	1.66283e-05 20.0601 	0.000467356 	1.66285e-05 20.0601 	0.00046736 	1.66286e-05 20.0308 	0.000300075 	2.34877e-05 20.06 	0.000478025 	2.33631e-05 20.06 	0.000478031 	2.33634e-05 20.06 	0.000478038 	2.33637e-05 20.06 	0.000478044 	2.3364e-05 20.0307 	0.000303079 	3.37971e-05 20.0599 	0.000485387 	3.00439e-05 20.0599 	0.000485396 	3.00445e-05 20.0599 	0.000485404 	3.0045e-05 20.0599 	0.000485413 	3.00455e-05 20.0307 	0.000330045 	4.75419e-05 20.0598 	0.000489031 	3.71569e-05 20.0598 	0.000489042 	3.71577e-05 20.0598 	0.000489053 	3.71585e-05 20.0598 	0.000489063 	3.71593e-05 20.0306 	0.000337065 	5.70341e-05 20.0596 	0.000508388 	4.37859e-05 20.0596 	0.000508401 	4.3787e-05 20.0596 	0.000508414 	4.37881e-05 20.0596 	0.000508427 	4.37892e-05 20.0305 	0.000311141 	6.26504e-05 20.0594 	0.000519422 	5.00455e-05 20.0594 	0.000519437 	5.0047e-05 20.0594 	0.000519452 	5.00485e-05 20.0594 	0.000519467 	5.00499e-05 20.0304 	0.000315092 	7.13628e-05 20.0592 	0.000524826 	5.58605e-05 20.0592 	0.000524843 	5.58623e-05 20.0592 	0.000524861 	5.58641e-05 20.0592 	0.000524878 	5.58659e-05 20.0303 	0.000317526 	7.96803e-05 20.0589 	0.000529328 	6.21261e-05 20.0589 	0.000529347 	6.21283e-05 20.0589 	0.000529367 	6.21306e-05 20.0589 	0.000529386 	6.21329e-05 20.0302 	0.00036341 	9.09023e-05 20.0586 	0.000532372 	6.75804e-05 20.0586 	0.000532393 	6.75831e-05 20.0586 	0.000532414 	6.75858e-05 20.0586 	0.000532435 	6.75884e-05 20.03 	0.000368615 	9.82973e-05 20.0583 	0.000542456 	7.29766e-05 20.0583 	0.000542479 	7.29797e-05 20.0583 	0.000542502 	7.29828e-05 20.0583 	0.000542525 	7.29859e-05 20.0299 	0.000326835 	0.000101852 20.0579 	0.000565232 	7.739e-05 20.0579 	0.000565258 	7.73935e-05 20.0579 	0.000565283 	7.7397e-05 20.0579 	0.000565309 	7.74005e-05 20.0297 	0.000331385 	0.000108244 20.0576 	0.000569147 	8.19924e-05 20.0576 	0.000569174 	8.19963e-05 20.0576 	0.000569201 	8.20003e-05 20.0576 	0.000569229 	8.20042e-05 20.0295 	0.000389855 	0.00011709 20.0572 	0.000584321 	8.60505e-05 20.0572 	0.00058435 	8.60548e-05 20.0572 	0.00058438 	8.60591e-05 20.0572 	0.000584409 	8.60635e-05 20.0293 	0.000396203 	0.000122484 20.0568 	0.000588952 	9.02118e-05 20.0568 	0.000588983 	9.02165e-05 20.0568 	0.000589014 	9.02213e-05 20.0568 	0.000589045 	9.0226e-05 20.0291 	0.000344237 	0.000124819 20.0563 	0.000615019 	9.30614e-05 20.0563 	0.000615052 	9.30665e-05 20.0563 	0.000615086 	9.30716e-05 20.0563 	0.000615119 	9.30766e-05 20.0289 	0.00035215 	0.000129354 20.0559 	0.00062858 	9.60544e-05 20.0559 	0.000628615 	9.60598e-05 20.0559 	0.00062865 	9.60652e-05 20.0559 	0.000628685 	9.60706e-05 20.0287 	0.000416591 	0.000136019 20.0554 	0.000628451 	9.8737e-05 20.0554 	0.000628488 	9.87427e-05 20.0554 	0.000628524 	9.87484e-05 20.0554 	0.00062856 	9.87541e-05 20.0285 	0.000358417 	0.000136886 20.055 	0.000651601 	0.000100629 20.055 	0.000651639 	0.000100635 20.055 	0.000651677 	0.000100641 20.055 	0.000651716 	0.000100647 20.0283 	0.000363743 	0.000140071 20.0545 	0.000655341 	0.000102513 20.0545 	0.00065538 	0.000102519 20.0545 	0.00065542 	0.000102525 20.0545 	0.000655459 	0.000102531 20.028 	0.00042887 	0.000145376 20.054 	0.000655381 	0.00010447 20.054 	0.000655421 	0.000104476 20.054 	0.000655461 	0.000104483 20.054 	0.0006555 	0.000104489 20.0278 	0.000430646 	0.000147651 20.0535 	0.000659574 	0.00010577 20.0535 	0.000659614 	0.000105777 20.0535 	0.000659655 	0.000105783 20.0535 	0.000659696 	0.00010579 20.0275 	0.000366358 	0.000146974 20.053 	0.000669328 	0.000106758 20.053 	0.00066937 	0.000106764 20.053 	0.000669412 	0.000106771 20.053 	0.000669453 	0.000106777 20.0273 	0.000368003 	0.000148428 20.0525 	0.000670792 	0.000107349 20.0525 	0.000670834 	0.000107356 20.0525 	0.000670876 	0.000107363 20.0525 	0.000670918 	0.00010737 20.027 	0.000367731 	0.000149577 20.052 	0.000671241 	0.00010829 20.052 	0.000671283 	0.000108297 20.052 	0.000671326 	0.000108304 20.052 	0.000671368 	0.00010831 20.0268 	0.000437848 	0.000152891 20.0514 	0.000671554 	0.000108573 20.0515 	0.000671596 	0.00010858 20.0515 	0.000671638 	0.000108587 20.0515 	0.000671681 	0.000108594 20.0265 	0.000438662 	0.000153428 20.0509 	0.000674344 	0.000108731 20.0509 	0.000674387 	0.000108738 20.0509 	0.00067443 	0.000108745 20.0509 	0.000674472 	0.000108752 20.0263 	0.000371724 	0.000150889 20.0504 	0.000689631 	0.000108114 20.0504 	0.000689674 	0.000108121 20.0504 	0.000689717 	0.000108128 20.0504 	0.000689761 	0.000108135 20.026 	0.000445434 	0.000153332 20.0499 	0.000690143 	0.000107824 20.0499 	0.000690186 	0.000107831 20.0499 	0.000690229 	0.000107838 20.0499 	0.000690273 	0.000107845 20.0258 	0.000448748 	0.000152718 20.0494 	0.000706208 	0.000107067 20.0494 	0.000706252 	0.000107074 20.0494 	0.000706296 	0.000107081 20.0494 	0.00070634 	0.000107087 20.0255 	0.000453128 	0.000151994 20.0489 	0.000709534 	0.000106494 20.0489 	0.000709578 	0.000106501 20.0489 	0.000709622 	0.000106507 20.0489 	0.000709666 	0.000106514 20.0253 	0.000388801 	0.000148493 20.0483 	0.000731915 	0.000104909 20.0483 	0.000731959 	0.000104915 20.0483 	0.000732004 	0.000104921 20.0483 	0.000732048 	0.000104928 20.025 	0.000394529 	0.000147313 20.0478 	0.000735405 	0.000104103 20.0478 	0.000735449 	0.00010411 20.0478 	0.000735494 	0.000104116 20.0478 	0.000735538 	0.000104122 20.0248 	0.000462238 	0.000148295 20.0473 	0.00073644 	0.000102996 20.0473 	0.000736484 	0.000103002 20.0473 	0.000736528 	0.000103009 20.0473 	0.000736572 	0.000103015 20.0245 	0.000396814 	0.000144387 20.0468 	0.000741085 	0.000101717 20.0468 	0.000741129 	0.000101723 20.0468 	0.000741172 	0.000101729 20.0468 	0.000741216 	0.000101735 20.0243 	0.000398402 	0.000142627 20.0463 	0.00074236 	0.000100282 20.0463 	0.000742403 	0.000100288 20.0463 	0.000742447 	0.000100294 20.0463 	0.00074249 	0.000100299 20.024 	0.000462637 	0.00014308 20.0458 	0.000742069 	9.89189e-05 20.0458 	0.000742112 	9.89246e-05 20.0458 	0.000742155 	9.89303e-05 20.0458 	0.000742197 	9.89359e-05 20.0238 	0.000464268 	0.000140959 20.0454 	0.000754338 	9.7078e-05 20.0454 	0.000754381 	9.70835e-05 20.0454 	0.000754423 	9.70889e-05 20.0454 	0.000754466 	9.70944e-05 20.0235 	0.000405834 	0.000136472 20.0449 	0.000759807 	9.51975e-05 20.0449 	0.000759849 	9.52027e-05 20.0449 	0.000759891 	9.5208e-05 20.0449 	0.000759933 	9.52132e-05 20.0233 	0.00040779 	0.000134113 20.0444 	0.000761761 	9.31807e-05 20.0444 	0.000761802 	9.31857e-05 20.0444 	0.000761843 	9.31908e-05 20.0444 	0.000761884 	9.31958e-05 20.0231 	0.000408911 	0.000131659 20.044 	0.000763623 	9.14531e-05 20.044 	0.000763664 	9.1458e-05 20.044 	0.000763704 	9.14628e-05 20.044 	0.000763744 	9.14677e-05 20.0229 	0.000468045 	0.000131432 20.0435 	0.000765383 	8.93517e-05 20.0435 	0.000765422 	8.93563e-05 20.0435 	0.000765462 	8.93609e-05 20.0435 	0.000765502 	8.93656e-05 20.0227 	0.000468476 	0.00012889 20.0431 	0.000771348 	8.71904e-05 20.0431 	0.000771387 	8.71948e-05 20.0431 	0.000771426 	8.71992e-05 20.0431 	0.000771465 	8.72036e-05 20.0224 	0.000416594 	0.000123664 20.0426 	0.000785854 	8.4438e-05 20.0426 	0.000785892 	8.44422e-05 20.0426 	0.000785931 	8.44463e-05 20.0426 	0.000785969 	8.44504e-05 20.0222 	0.000473266 	0.000123435 20.0422 	0.000788224 	8.22719e-05 20.0422 	0.000788261 	8.22758e-05 20.0422 	0.000788299 	8.22797e-05 20.0422 	0.000788336 	8.22836e-05 20.022 	0.000474608 	0.0001206 20.0418 	0.000798922 	7.98246e-05 20.0418 	0.000798959 	7.98283e-05 20.0418 	0.000798996 	7.9832e-05 20.0418 	0.000799033 	7.98357e-05 20.0218 	0.000427348 	0.000114953 20.0414 	0.000804347 	7.7249e-05 20.0414 	0.000804383 	7.72524e-05 20.0414 	0.000804419 	7.72559e-05 20.0414 	0.000804455 	7.72593e-05 20.0216 	0.000430742 	0.000111886 20.041 	0.000807339 	7.45616e-05 20.041 	0.000807374 	7.45648e-05 20.041 	0.000807409 	7.45681e-05 20.041 	0.000807443 	7.45713e-05 20.0214 	0.000433602 	0.000108821 20.0406 	0.000809676 	7.20617e-05 20.0406 	0.00080971 	7.20647e-05 20.0406 	0.000809744 	7.20677e-05 20