# vtk DataFile Version 2.0
track0
ASCII
DATASET POLYDATA
POINTS 15810 float
-1.001 -0.05 0.0011
-1.0008 -0.05 0.0011
-1.0006 -0.05 0.0011
-1.0004 -0.05 0.00109999
-1.0002 -0.05 0.00109999
-1 -0.05 0.00109999
-0.9875 -0.0500001 0.00109985
-0.975 -0.0500002 0.00109981
-0.9625 -0.0500003 0.00109977
-0.95 -0.0500005 0.00109973
-0.9375 -0.0500006 0.00109968
-0.925 -0.0500006 0.00109955
-0.9125 -0.0500007 0.0010995
-0.9 -0.0500008 0.00109945
-0.8875 -0.0500009 0.0010994
-0.875 -0.050001 0.00109935
-0.8625 -0.0500009 0.00109922
-0.85 -0.050001 0.00109915
-0.8375 -0.0500011 0.00109909
-0.825 -0.0500012 0.00109903
-0.8125 -0.0500013 0.00109897
-0.8 -0.0500013 0.00109884
-0.7875 -0.0500014 0.00109877
-0.775 -0.0500015 0.0010987
-0.7625 -0.0500016 0.00109863
-0.75 -0.0500017 0.00109856
-0.7375 -0.0500016 0.00109842
-0.725 -0.0500017 0.00109834
-0.7125 -0.0500018 0.00109827
-0.7 -0.0500019 0.00109819
-0.6875 -0.050002 0.00109812
-0.675 -0.0500019 0.00109797
-0.6625 -0.050002 0.00109789
-0.65 -0.0500021 0.00109781
-0.6375 -0.0500022 0.00109773
-0.625 -0.0500023 0.00109765
-0.6125 -0.0500023 0.0010975
-0.6 -0.0500024 0.00109742
-0.5875 -0.0500025 0.00109733
-0.575 -0.0500025 0.00109725
-0.5625 -0.0500026 0.00109716
-0.55 -0.0500027 0.00109701
-0.5375 -0.0500027 0.00109693
-0.525 -0.0500028 0.00109684
-0.5125 -0.0500029 0.00109675
-0.5 -0.050003 0.00109666
-0.4875 -0.0500029 0.0010965
-0.475 -0.050003 0.0010964
-0.4625 -0.050003 0.00109631
-0.45 -0.0500031 0.00109622
-0.4375 -0.0500032 0.00109612
-0.425 -0.0500031 0.00109596
-0.4125 -0.0500032 0.00109586
-0.4 -0.0500033 0.00109577
-0.3875 -0.0500033 0.00109567
-0.375 -0.0500034 0.00109557
-0.3625 -0.0500033 0.00109541
-0.35 -0.0500034 0.0010953
-0.3375 -0.0500035 0.0010952
-0.325 -0.0500035 0.0010951
-0.3125 -0.0500036 0.001095
-0.3 -0.0500036 0.00109484
-0.2875 -0.0500037 0.00109473
-0.275 -0.0500038 0.00109463
-0.2625 -0.0500038 0.00109452
-0.25 -0.0500039 0.00109442
-0.2375 -0.0500039 0.00109425
-0.225 -0.050004 0.00109414
-0.2125 -0.0500041 0.00109403
-0.2 -0.0500041 0.00109392
-0.1875 -0.0500042 0.00109381
-0.175 -0.0500041 0.00109364
-0.1625 -0.0500042 0.00109352
-0.15 -0.0500043 0.00109341
-0.1375 -0.0500043 0.0010933
-0.125 -0.0500044 0.00109319
-0.1125 -0.0500044 0.00109301
-0.1 -0.0500045 0.00109289
-0.0875 -0.0500045 0.00109278
-0.075 -0.0500046 0.00109266
-0.0625 -0.0500046 0.00109255
-0.05 -0.0500047 0.00109237
-0.0375 -0.0500047 0.00109225
-0.025 -0.0500048 0.00109213
-0.0125 -0.0500048 0.00109201
3.21676e-12 -0.0500049 0.00109189
0.0125 -0.0500048 0.0010917
0.025 -0.0500049 0.00109158
0.0375 -0.0500049 0.00109146
0.05 -0.050005 0.00109133
0.0625 -0.050005 0.00109121
0.075 -0.0500049 0.00109102
0.0875 -0.050005 0.00109089
0.1 -0.050005 0.00109077
0.1125 -0.0500051 0.00109064
0.125 -0.0500051 0.00109051
0.1375 -0.050005 0.00109032
0.15 -0.0500051 0.00109019
0.1625 -0.0500051 0.00109006
0.175 -0.0500052 0.00108993
0.1875 -0.0500052 0.0010898
0.2 -0.0500053 0.00108961
0.2125 -0.0500053 0.00108948
0.225 -0.0500053 0.00108935
0.2375 -0.0500054 0.00108921
0.25 -0.0500054 0.00108908
0.2625 -0.0500054 0.00108888
0.275 -0.0500054 0.00108874
0.2875 -0.0500054 0.00108861
0.3 -0.0500055 0.00108848
0.3125 -0.0500055 0.00108834
0.325 -0.0500054 0.00108814
0.3375 -0.0500054 0.001088
0.35 -0.0500055 0.00108786
0.3625 -0.0500055 0.00108773
0.375 -0.0500055 0.00108759
0.3875 -0.0500056 0.00108739
0.4 -0.0500056 0.00108725
0.4125 -0.0500056 0.00108711
0.425 -0.0500057 0.00108697
0.4375 -0.0500057 0.00108683
0.45 -0.0500057 0.00108662
0.4625 -0.0500057 0.00108648
0.475 -0.0500058 0.00108634
0.4875 -0.0500058 0.0010862
0.5 -0.0500058 0.00108606
0.5125 -0.0500057 0.00108585
0.525 -0.0500058 0.0010857
0.5375 -0.0500058 0.00108556
0.55 -0.0500058 0.00108542
0.5625 -0.0500058 0.00108528
0.575 -0.0500057 0.00108506
0.5875 -0.0500057 0.00108492
0.6 -0.0500058 0.00108477
0.6125 -0.0500058 0.00108463
0.625 -0.0500058 0.00108448
0.6375 -0.0500057 0.00108427
0.65 -0.0500057 0.00108412
0.6625 -0.0500057 0.00108398
0.675 -0.0500057 0.00108383
0.6875 -0.0500058 0.00108369
0.7 -0.0500058 0.00108348
0.7125 -0.0500058 0.00108333
0.725 -0.0500058 0.00108319
0.7375 -0.0500058 0.00108304
0.75 -0.0500058 0.00108289
0.7625 -0.0500058 0.00108268
0.775 -0.0500058 0.00108253
0.7875 -0.0500058 0.00108239
0.8 -0.0500058 0.00108224
0.8125 -0.0500058 0.00108209
0.825 -0.0500057 0.00108188
0.8375 -0.0500057 0.00108173
0.85 -0.0500057 0.00108158
0.8625 -0.0500057 0.00108144
0.875 -0.0500057 0.00108129
0.8875 -0.0500057 0.00108108
0.9 -0.0500057 0.00108093
0.9125 -0.0500057 0.00108078
0.925 -0.0500057 0.00108064
0.9375 -0.0500057 0.00108049
0.95 -0.0500057 0.00108028
0.9625 -0.0500057 0.00108013
0.975 -0.0500057 0.00107999
0.9875 -0.0500057 0.00107984
1 -0.0500057 0.0010797
1.0125 -0.0500056 0.00107948
1.025 -0.0500055 0.00107934
1.0375 -0.0500055 0.00107919
1.05 -0.0500055 0.00107905
1.0625 -0.0500055 0.0010789
1.075 -0.0500054 0.00107869
1.0875 -0.0500053 0.00107854
1.1 -0.0500053 0.0010784
1.1125 -0.0500053 0.00107826
1.125 -0.0500053 0.00107811
1.1375 -0.0500051 0.0010779
1.15 -0.0500051 0.00107776
1.1625 -0.0500051 0.00107762
1.175 -0.0500051 0.00107748
1.1875 -0.050005 0.00107733
1.2 -0.050005 0.00107713
1.2125 -0.050005 0.00107699
1.225 -0.0500049 0.00107685
1.2375 -0.0500049 0.00107671
1.25 -0.0500049 0.00107657
1.2625 -0.0500048 0.00107636
1.275 -0.0500047 0.00107622
1.2875 -0.0500047 0.00107609
1.3 -0.0500046 0.00107595
1.3125 -0.0500046 0.00107581
1.325 -0.0500045 0.00107561
1.3375 -0.0500044 0.00107547
1.35 -0.0500044 0.00107533
1.3625 -0.0500043 0.0010752
1.375 -0.0500043 0.00107506
1.3875 -0.0500042 0.00107487
1.4 -0.0500042 0.00107474
1.4125 -0.0500041 0.0010746
1.425 -0.0500041 0.00107447
1.4375 -0.050004 0.00107434
1.45 -0.050004 0.00107415
1.4625 -0.0500039 0.00107402
1.475 -0.0500038 0.00107389
1.4875 -0.0500038 0.00107376
1.5 -0.0500037 0.00107362
1.5125 -0.0500036 0.00107344
1.525 -0.0500035 0.00107331
1.5375 -0.0500034 0.00107318
1.55 -0.0500034 0.00107306
1.5625 -0.0500033 0.00107293
1.575 -0.0500032 0.00107275
1.5875 -0.0500031 0.00107262
1.6 -0.050003 0.0010725
1.6125 -0.0500029 0.00107238
1.625 -0.0500028 0.00107225
1.6375 -0.0500027 0.00107207
1.65 -0.0500026 0.00107196
1.6625 -0.0500025 0.00107184
1.675 -0.0500024 0.00107172
1.6875 -0.0500023 0.0010716
1.7 -0.0500023 0.00107143
1.7125 -0.0500022 0.00107132
1.725 -0.0500021 0.0010712
1.7375 -0.050002 0.00107109
1.75 -0.0500019 0.00107097
1.7625 -0.0500019 0.00107081
1.775 -0.0500018 0.0010707
1.7875 -0.0500017 0.00107059
1.8 -0.0500015 0.00107048
1.8125 -0.0500014 0.00107037
1.825 -0.0500013 0.00107021
1.8375 -0.0500012 0.0010701
1.85 -0.0500011 0.00106999
1.8625 -0.0500009 0.00106989
1.875 -0.0500008 0.00106978
1.8875 -0.0500007 0.00106963
1.9 -0.0500006 0.00106953
1.9125 -0.0500005 0.00106943
1.925 -0.0500004 0.00106933
1.9375 -0.0500002 0.00106922
1.95 -0.0500002 0.00106908
1.9625 -0.05 0.00106898
1.975 -0.0499999 0.00106889
1.9875 -0.0499998 0.00106879
2 -0.0499996 0.0010687
2.0125 -0.0499995 0.00106856
2.025 -0.0499993 0.00106847
2.0375 -0.0499992 0.00106837
2.05 -0.049999 0.00106828
2.0625 -0.0499989 0.00106819
2.075 -0.0499987 0.00106806
2.0875 -0.0499986 0.00106798
2.1 -0.0499984 0.00106789
2.1125 -0.0499983 0.00106781
2.125 -0.0499981 0.00106773
2.1375 -0.049998 0.0010676
2.15 -0.0499978 0.00106752
2.1625 -0.0499977 0.00106745
2.175 -0.0499975 0.00106737
2.1875 -0.0499974 0.00106729
2.2 -0.0499973 0.00106718
2.2125 -0.0499971 0.00106711
2.225 -0.0499969 0.00106704
2.2375 -0.0499968 0.00106696
2.25 -0.0499966 0.00106689
2.2625 -0.0499965 0.00106678
2.275 -0.0499963 0.00106672
2.2875 -0.0499961 0.00106665
2.3 -0.0499959 0.00106659
2.3125 -0.0499958 0.00106652
2.325 -0.0499956 0.00106642
2.3375 -0.0499954 0.00106636
2.35 -0.0499952 0.0010663
2.3625 -0.0499951 0.00106624
2.375 -0.0499949 0.00106618
2.3875 -0.0499948 0.00106609
2.4 -0.0499946 0.00106603
2.4125 -0.0499944 0.00106598
2.425 -0.0499942 0.00106592
2.4375 -0.049994 0.00106587
2.45 -0.0499939 0.00106578
2.4625 -0.0499937 0.00106573
2.475 -0.0499935 0.00106568
2.4875 -0.0499933 0.00106563
2.5 -0.0499931 0.00106558
2.5125 -0.0499929 0.00106551
2.525 -0.0499927 0.00106546
2.5375 -0.0499925 0.00106542
2.55 -0.0499923 0.00106537
2.5625 -0.049992 0.00106533
2.575 -0.0499919 0.00106526
2.5875 -0.0499916 0.00106522
2.6 -0.0499914 0.00106518
2.6125 -0.0499912 0.00106514
2.625 -0.049991 0.0010651
2.6375 -0.0499908 0.00106504
2.65 -0.0499906 0.00106501
2.6625 -0.0499904 0.00106497
2.675 -0.0499901 0.00106494
2.6875 -0.0499899 0.00106491
2.7 -0.0499898 0.00106486
2.7125 -0.0499895 0.00106483
2.725 -0.0499893 0.0010648
2.7375 -0.0499891 0.00106477
2.75 -0.0499889 0.00106474
2.7625 -0.0499887 0.0010647
2.775 -0.0499885 0.00106468
2.7875 -0.0499882 0.00106465
2.8 -0.049988 0.00106463
2.8125 -0.0499877 0.00106461
2.825 -0.0499876 0.00106457
2.8375 -0.0499873 0.00106455
2.85 -0.049987 0.00106453
2.8625 -0.0499868 0.00106451
2.875 -0.0499865 0.00106449
2.8875 -0.0499863 0.00106447
2.9 -0.0499861 0.00106445
2.9125 -0.0499858 0.00106444
2.925 -0.0499856 0.00106443
2.9375 -0.0499853 0.00106441
2.95 -0.0499851 0.00106439
2.9625 -0.0499848 0.00106438
2.975 -0.0499846 0.00106437
2.9875 -0.0499843 0.00106436
3 -0.049984 0.00106435
3.0125 -0.0499838 0.00106434
3.025 -0.0499836 0.00106434
3.0375 -0.0499833 0.00106433
3.05 -0.049983 0.00106433
3.0625 -0.0499827 0.00106432
3.075 -0.0499825 0.00106432
3.0875 -0.0499823 0.00106432
3.1 -0.049982 0.00106432
3.1125 -0.0499817 0.00106432
3.125 -0.0499814 0.00106432
3.1375 -0.0499812 0.00106432
3.15 -0.0499809 0.00106433
3.1625 -0.0499807 0.00106433
3.175 -0.0499804 0.00106434
3.1875 -0.0499801 0.00106434
3.2 -0.0499799 0.00106435
3.2125 -0.0499796 0.00106436
3.225 -0.0499793 0.00106437
3.2375 -0.049979 0.00106438
3.25 -0.0499787 0.00106439
3.2625 -0.0499785 0.00106441
3.275 -0.0499782 0.00106442
3.2875 -0.0499779 0.00106444
3.3 -0.0499776 0.00106445
3.3125 -0.0499773 0.00106447
3.325 -0.0499772 0.00106449
3.3375 -0.0499769 0.00106451
[...]
POINT_DATA 15810
 FIELD attributes 2
p 1 15810 float
3.96348 3.96315 3.96283 3.96251 3.96218 3.96186 3.94338 3.92501 3.90664 3.88827 3.86798 3.84688 3.82563 3.80439 3.78314 3.76266 3.74234 3.72214 3.70194 3.68174 3.66228 3.64225 3.62192 3.60158 3.58124 3.5608 3.53953 3.51805 3.49657 3.47509 3.45346 3.43098 3.40829 3.3856 3.36292 3.34004 3.31653 3.29284 3.26915 3.24545 3.22161 3.1972 3.17257 3.14794 3.12332 3.09851 3.07312 3.04752 3.02193 2.99633 2.97056 2.94416 2.91755 2.89094 2.86433 2.8375 2.81006 2.7824 2.75474 2.72708 2.69921 2.67071 2.64201 2.6133 2.5846 2.55569 2.52617 2.49644 2.46672 2.437 2.40707 2.37654 2.3458 2.31506 2.28432 2.25337 2.22183 2.19008 2.15834 2.12659 2.09463 2.0621 2.02937 1.99665 1.96393 1.931 1.89751 1.86383 1.83015 1.79646 1.76257 1.72814 1.69352 1.6589 1.62429 1.58947 1.55414 1.51862 1.4831 1.44758 1.41187 1.37566 1.33929 1.30291 1.26654 1.22999 1.19297 1.15577 1.11858 1.08139 1.04403 1.0062 0.968211 0.930217 0.892223 0.854055 0.815461 0.776705 0.73795 0.699194 0.660274 0.620983 0.581541 0.542099 0.502657 0.463063 0.423133 0.383056 0.342978 0.302901 0.262676 0.22214 0.181465 0.14079 0.100115 0.0592959 0.0182225 -0.0229803 -0.064183 -0.105386 -0.146728 -0.18826 -0.229899 -0.271537 -0.313176 -0.354934 -0.396812 -0.438793 -0.480773 -0.522753 -0.564842 -0.606993 -0.649238 -0.691483 -0.733729 -0.776071 -0.818426 -0.860865 -0.903304 -0.945743 -0.98827 -1.03074 -1.07326 -1.11579 -1.15831 -1.20091 -1.24338 -1.2859 -1.32843 -1.37096 -1.41355 -1.45595 -1.4984 -1.54084 -1.58329 -1.62578 -1.66801 -1.71027 -1.75254 -1.7948 -1.8371 -1.87906 -1.92103 -1.963 -2.00497 -2.04695 -2.08853 -2.1301 -2.17168 -2.21325 -2.25482 -2.29595 -2.33706 -2.37817 -2.41928 -2.46038 -2.50097 -2.54152 -2.58207 -2.62262 -2.66313 -2.70306 -2.74294 -2.78281 -2.82269 -2.86251 -2.9017 -2.94082 -2.97995 -3.01907 -3.05814 -3.09653 -3.13484 -3.17315 -3.21146 -3.24969 -3.28718 -3.32457 -3.36197 -3.39936 -3.43667 -3.47315 -3.50953 -3.54591 -3.58229 -3.61855 -3.65395 -3.68921 -3.72448 -3.75975 -3.79488 -3.8291 -3.8632 -3.89731 -3.93141 -3.96538 -3.99842 -4.03132 -4.06421 -4.09711 -4.12987 -4.16162 -4.19322 -4.22482 -4.25641 -4.28786 -4.31819 -4.34835 -4.3785 -4.40865 -4.43862 -4.46736 -4.49593 -4.52451 -4.55308 -4.58146 -4.60864 -4.63567 -4.66269 -4.68971 -4.71657 -4.7423 -4.76787 -4.79344 -4.819 -4.8444 -4.86867 -4.89276 -4.91686 -4.94095 -4.96485 -4.9876 -5.01016 -5.03273 -5.0553 -5.07766 -5.09886 -5.11986 -5.14085 -5.16184 -5.18261 -5.2022 -5.22157 -5.24095 -5.26032 -5.27947 -5.29745 -5.3152 -5.33296 -5.35072 -5.36824 -5.38459 -5.40073 -5.41687 -5.43301 -5.44892 -5.46365 -5.47815 -5.49265 -5.50715 -5.52141 -5.5345 -5.54735 -5.5602 -5.57305 -5.58565 -5.59709 -5.60829 -5.6195 -5.6307 -5.64165 -5.65147 -5.66108 -5.67068 -5.68029 -5.68966 -5.69792 -5.70594 -5.71396 -5.72198 -5.72976 -5.73641 -5.74282 -5.74923 -5.75565 -5.76183 -5.76687 -5.77168 -5.7765 -5.78131 -5.78589 -5.78935 -5.79261 -5.79586 -5.79912 -5.80215 -5.8041 -5.80584 -5.80757 -5.80931 -5.81084 -5.81131 -5.81157 -5.81183 -5.81209 -5.81215 -5.81119 -5.81004 -5.80889 -5.80774 -5.80638 -5.80403 -5.8015 -5.79897 -5.79644 -5.79371 -5.79002 -5.78614 -5.78225 -5.77837 -5.77428 -5.76927 -5.76408 -5.7589 -5.75371 -5.74834 -5.7421 -5.73569 -5.72928 -5.72287 -5.71627 -5.70884 -5.70127 -5.69371 -5.68614 -5.6784 -5.66988 -5.66121 -5.65253 -5.64386 -5.63501 -5.62543 -5.61571 -5.60598 -5.59626 -5.58638 -5.5758 -5.56508 -5.55436 -5.54365 -5.53277 -5.52125 -5.5096 -5.49796 -5.48631 -5.47453 -5.46215 -5.44965 -5.43714 -5.42463 -5.412 -5.3988 -5.38548 -5.37216 -5.35884 -5.3454 -5.33144 -5.31736 -5.30328 -5.28921 -5.27502 -5.26036 -5.24561 -5.23086 -5.2161 -5.20125 -5.18599 -5.17064 -5.15529 -5.13994 -5.12449 -5.10867 -5.09277 -5.07687 -5.06097 -5.04497 -5.02865 -5.01224 -4.99584 -4.97944 -4.96295 -4.9462 -4.92938 -4.91257 -4.89575 -4.87886 -4.86175 -4.84458 -4.8274 -4.81022 -4.79297 -4.77555 -4.75806 -4.74056 -4.72306 -4.7055 -4.68781 -4.67005 -4.6523 -4.63454 -4.61674 -4.59885 -4.5809 -4.56294 -4.54499 -4.52698 -4.50892 -4.4908 -4.47268 -4.45457 -4.43641 -4.41823 -4.39999 -4.38174 -4.3635 -4.34522 -4.32692 -4.3086 -4.29027 -4.27194 -4.2536 -4.23528 -4.21694 -4.1986 -4.18025 -4.1619 -4.1436 -4.12529 -4.10699 -4.08868 -4.07038 -4.05214 -4.03389 -4.01563 -3.99738 -3.97912 -3.96095 -3.94277 -3.92459 -3.90641 -3.88822 -3.87013 -3.85206 -3.834 -3.81594 -3.79789 -3.77998 -3.76208 -3.74419 -3.72629 -3.70839 -3.69065 -3.67291 -3.65518 -3.63744 -3.61971 -3.60212 -3.58453 -3.56695 -3.54937 -3.53182 -3.51444 -3.49706 -3.47968 -3.4623 -3.44494 -3.42777 -3.41061 -3.39345 -3.37629 -3.35918 -3.34227 -3.32536 -3.30844 -3.29152 -3.27462 -3.25796 -3.24132 -3.22469 -3.20805 -3.19145 -3.1751 -3.15876 -3.14243 -3.12609 -3.10978 -3.09371 -3.07765 -3.0616 -3.04554 -3.02951 -3.01371 -2.99791 -2.98211 -2.96631 -2.95053 -2.93498 -2.91944 -2.9039 -2.88836 -2.87286 -2.85761 -2.84239 -2.82717 -2.81196 -2.79678 -2.78188 -2.76702 -2.75216 -2.7373 -2.72248 -2.70792 -2.69339 -2.67886 -2.66433 -2.64983 -2.63559 -2.62137 -2.60716 -2.59295 -2.57876 -2.56483 -2.55098 -2.53714 -2.5233 -2.50951 -2.496 -2.48254 -2.46907 -2.45561 -2.4422 -2.42905 -2.41588 -2.40271 -2.38954 -2.37641 -2.36348 -2.35056 -2.33764 -2.32472 -2.31187 -2.29922 -2.28658 -2.27394 -2.26131 -2.2487 -2.23632 -2.22398 -2.21163 -2.19928 -2.18694 -2.17484 -2.16277 -2.1507 -2.13863 -2.1266 -2.11481 -2.10305 -2.09128 -2.07952 -2.06779 -2.05631 -2.04487 -2.03343 -2.02199 -2.01059 -1.99943 -1.98831 -1.97718 -1.96605 -1.95494 -1.94405 -1.93319 -1.92232 -1.91146 -1.90062 -1.88997 -1.87933 -1.8687 -1.85806 -1.84745 -1.83705 -1.82669 -1.81632 -1.80596 -1.79564 -1.78556 -1.77551 -1.76547 -1.75542 -1.74544 -1.73568 -1.72592 -1.71616 -1.7064 -1.69668 -1.68716 -1.67765 -1.66815 -1.65865 -1.64919 -1.6399 -1.63066 -1.62143 -1.61219 -1.603 -1.59397 -1.58498 -1.57598 -1.56699 -1.558 -1.54914 -1.54031 -1.53147 -1.52264 -1.51382 -1.50513 -1.49646 -1.4878 -1.47913 -1.47049 -1.46203 -1.45361 -1.4452 -1.43678 -1.42841 -1.42021 -1.41204 -1.40388 -1.39571 -1.38756 -1.37956 -1.37159 -1.36363 -1.35566 -1.34773 -1.33993 -1.33215 -1.32437 -1.31659 -1.30883 -1.30124 -1.29369 -1.28613 -1.27857 -1.27104 -1.26371 -1.25638 -1.24906 -1.24174 -1.23441 -1.22726 -1.22013 -1.21299 -1.20586 -1.19873 -1.19177 -1.18482 -1.17788 -1.17093 -1.16399 -1.15738 -1.15084 -1.1443 -1.13776 -1.13127 -1.12567 -1.12026 -1.11485 -1.10945 -1.10415 -1.0983 -1.0926 -1.08691 -1.08122 -1.07469 -1.05932 -1.04324 -1.02671 -1.01196 -0.997577 -0.985675 -0.973726 -0.961777 -0.951122 -0.940568 -0.918339 -0.896413 -0.874487 -0.851021 -0.829687 -0.810317 -0.790575 -0.770833 -0.751091 -0.731484 -0.712723 -0.693961 -0.675199 -0.656437 -0.640185 -0.606359 -0.572781 -0.539203 -0.505625 -0.472688 -0.446491 -0.420364 -0.394237 -0.36811 -0.344778 -0.309914 -0.275183 -0.240452 -0.205721 -0.168761 -0.1499 -0.130679 -0.111459 -0.0922377 -0.0714996 -0.0618233 -0.0517499 -0.0416765 -0.0316031 -0.0197915 -0.0163425 -0.0124756 -0.00860866 -0.00474173 0.000695827 0.000439361 0.00048864 0.000538927 0.000590219 0.00234696
3.95003 3.94967 3.9493 3.94893 3.94856 3.94819 3.9329 3.91543 3.89998 3.88496 3.86547 3.84383 3.82383 3.80363 3.78256 3.76357 3.74319 3.72298 3.7031 3.68329 3.66431 3.64392 3.62353 3.60315 3.58277 3.56252 3.54107 3.51955 3.49801 3.47646 3.45491 3.43211 3.4094 3.38669 3.36398 3.34139 3.3175 3.2938 3.2701 3.2464 3.22291 3.19809 3.17345 3.14882 3.12418 3.09977 3.07399 3.04839 3.02279 2.99719 2.97176 2.94501 2.91839 2.89177 2.86516 2.8387 2.81087 2.7832 2.75553 2.72785 2.70032 2.67143 2.6427 2.61397 2.58526 2.55672 2.52678 2.49706 2.46731 2.43755 2.408 2.37708 2.34631 2.31555 2.28481 2.25423 2.22228 2.19052 2.15875 2.12697 2.09537 2.06242 2.02965 1.99689 1.96415 1.93159 1.89769 1.86399 1.83027 1.79654 1.76302 1.72819 1.69353 1.65887 1.62425 1.5898 1.55405 1.51852 1.48297 1.44741 1.41206 1.37543 1.33901 1.30259 1.26621 1.23003 1.19258 1.15538 1.11814 1.08089 1.04388 1.00566 0.967606 0.929562 0.89156 0.853723 0.814726 0.775962 0.737156 0.698338 0.659748 0.620051 0.580539 0.541041 0.501589 0.462329 0.42201 0.381923 0.341782 0.301625 0.261703 0.220799 0.180043 0.139304 0.0986185 0.0580804 0.0166371 -0.0245764 -0.0658429 -0.107125 -0.148188 -0.190081 -0.231802 -0.273507 -0.315156 -0.35664 -0.398885 -0.440874 -0.482923 -0.52499 -0.566809 -0.609294 -0.651624 -0.693936 -0.736189 -0.778285 -0.820962 -0.863411 -0.905919 -0.948446 -0.990756 -1.03355 -1.07617 -1.11877 -1.1613 -1.20366 -1.24642 -1.28896 -1.33156 -1.37418 -1.41658 -1.45927 -1.5018 -1.54431 -1.58677 -1.62906 -1.67155 -1.71382 -1.75614 -1.79848 -1.84061 -1.88284 -1.92489 -1.96692 -2.0089 -2.05069 -2.0925 -2.13408 -2.17571 -2.21737 -2.25881 -2.30013 -2.34132 -2.3825 -2.42361 -2.4646 -2.50537 -2.54593 -2.58653 -2.62716 -2.66757 -2.70767 -2.74762 -2.78755 -2.82743 -2.86715 -2.90648 -2.9456 -2.98479 -3.02399 -3.06299 -3.10148 -3.13986 -3.17822 -3.21653 -3.25474 -3.29234 -3.32973 -3.36717 -3.40461 -3.44187 -3.47843 -3.51486 -3.55127 -3.58765 -3.62389 -3.65936 -3.69462 -3.72992 -3.76523 -3.80033 -3.83457 -3.8687 -3.90282 -3.93692 -3.9709 -4.00394 -4.03684 -4.06975 -4.10266 -4.13544 -4.16723 -4.19885 -4.23047 -4.26208 -4.29351 -4.32405 -4.35422 -4.3844 -4.41458 -4.44438 -4.47332 -4.50193 -4.53052 -4.55908 -4.58729 -4.61447 -4.64147 -4.66852 -4.69559 -4.72248 -4.74808 -4.77369 -4.79928 -4.82482 -4.85036 -4.87445 -4.89853 -4.92263 -4.94674 -4.97083 -4.99334 -5.01591 -5.03847 -5.06102 -5.08361 -5.10454 -5.12552 -5.14651 -5.1675 -5.18852 -5.20783 -5.22719 -5.24656 -5.26592 -5.28533 -5.30298 -5.32072 -5.33847 -5.35621 -5.37403 -5.39007 -5.40618 -5.4223 -5.43843 -5.45464 -5.46903 -5.48352 -5.49799 -5.51246 -5.52703 -5.53977 -5.55258 -5.5654 -5.57824 -5.59114 -5.6022 -5.61339 -5.62456 -5.63572 -5.64699 -5.65642 -5.66597 -5.67554 -5.68514 -5.69486 -5.70276 -5.71078 -5.71876 -5.72673 -5.7348 -5.74115 -5.7475 -5.75388 -5.76029 -5.76671 -5.77147 -5.77627 -5.78104 -5.78578 -5.79057 -5.79374 -5.79693 -5.80014 -5.80338 -5.80664 -5.8083 -5.81002 -5.81171 -5.81339 -5.81514 -5.8153 -5.8155 -5.81572 -5.81597 -5.81628 -5.81502 -5.81385 -5.81264 -5.81142 -5.81029 -5.80764 -5.80503 -5.80243 -5.79989 -5.79736 -5.79339 -5.7895 -5.78555 -5.78159 -5.7777 -5.77241 -5.76716 -5.76193 -5.75674 -5.75155 -5.74505 -5.73863 -5.73218 -5.72572 -5.71931 -5.71163 -5.704 -5.69638 -5.6888 -5.68122 -5.67246 -5.66378 -5.65505 -5.64631 -5.63764 -5.62783 -5.61804 -5.60826 -5.59853 -5.58879 -5.578 -5.56727 -5.5565 -5.54571 -5.53497 -5.52324 -5.51152 -5.49982 -5.48816 -5.47651 -5.46393 -5.45141 -5.43885 -5.42626 -5.41374 -5.40037 -5.38697 -5.3736 -5.36026 -5.34691 -5.33279 -5.3187 -5.30457 -5.29043 -5.27633 -5.2615 -5.24668 -5.23187 -5.21711 -5.20233 -5.18691 -5.17154 -5.15614 -5.14073 -5.12538 -5.10942 -5.09346 -5.07751 -5.0616 -5.04567 -5.02921 -5.0128 -4.99636 -4.9799 -4.9635 -4.9466 -4.92973 -4.91287 -4.89604 -4.87923 -4.862 -4.84481 -4.82759 -4.81035 -4.79317 -4.77563 -4.75808 -4.74054 -4.72304 -4.70552 -4.68772 -4.66996 -4.65217 -4.63437 -4.6166 -4.59861 -4.58061 -4.56262 -4.54466 -4.52671 -4.50855 -4.49043 -4.47228 -4.45411 -4.43598 -4.41772 -4.39944 -4.38116 -4.36291 -4.34467 -4.3263 -4.30797 -4.28961 -4.27124 -4.25291 -4.2345 -4.21612 -4.19774 -4.1794 -4.1611 -4.14273 -4.12442 -4.10608 -4.08773 -4.06946 -4.05115 -4.03286 -4.01458 -3.99633 -3.97809 -3.95988 -3.94169 -3.9235 -3.90529 -3.88713 -3.869 -3.85091 -3.83283 -3.81477 -3.79672 -3.77877 -3.76087 -3.74295 -3.72504 -3.70717 -3.68941 -3.67165 -3.6539 -3.63616 -3.6184 -3.60083 -3.58324 -3.56565 -3.54805 -3.53049 -3.51308 -3.49568 -3.47829 -3.4609 -3.44353 -3.42639 -3.40924 -3.39206 -3.37489 -3.35775 -3.34083 -3.32389 -3.30696 -3.29004 -3.27311 -3.25646 -3.23983 -3.22318 -3.20654 -3.18992 -3.17358 -3.15725 -3.14091 -3.12458 -3.10824 -3.09221 -3.07616 -3.0601 -3.04403 -3.02795 -3.0122 -2.99639 -2.98059 -2.96479 -2.94896 -2.93345 -2.91792 -2.90238 -2.88683 -2.87128 -2.85603 -2.84081 -2.82559 -2.81038 -2.7952 -2.78031 -2.76544 -2.75057 -2.7357 -2.72087 -2.70632 -2.69178 -2.67725 -2.66272 -2.64821 -2.63397 -2.61976 -2.60555 -2.59135 -2.57716 -2.56319 -2.54935 -2.53552 -2.52169 -2.50797 -2.49443 -2.48096 -2.4675 -2.45404 -2.44066 -2.42753 -2.41436 -2.40119 -2.38803 -2.37487 -2.36207 -2.34916 -2.33625 -2.32333 -2.31038 -2.29779 -2.28517 -2.27253 -2.25989 -2.24722 -2.23493 -2.22259 -2.21024 -2.19789 -2.1855 -2.17342 -2.16135 -2.14928 -2.1372 -2.12511 -2.1134 -2.10164 -2.08988 -2.07813 -2.06635 -2.05491 -2.04349 -2.03206 -2.02062 -2.00918 -1.99807 -1.98694 -1.97583 -1.96471 -1.95355 -1.94273 -1.93188 -1.92102 -1.91016 -1.89926 -1.88867 -1.87805 -1.86742 -1.85679 -1.84613 -1.83574 -1.82539 -1.81503 -1.80467 -1.79435 -1.78428 -1.77423 -1.76418 -1.75414 -1.74412 -1.73438 -1.72462 -1.71486 -1.70511 -1.69536 -1.68589 -1.6764 -1.66693 -1.65746 -1.64798 -1.63877 -1.62957 -1.62037 -1.61115 -1.60193 -1.59295 -1.58396 -1.57496 -1.56596 -1.55691 -1.54815 -1.53931 -1.53046 -1.52161 -1.51268 -1.50405 -1.49539 -1.48672 -1.47805 -1.46937 -1.46092 -1.45251 -1.4441 -1.43568 -1.42729 -1.41914 -1.41098 -1.40282 -1.39466 -1.3865 -1.37855 -1.37059 -1.36262 -1.35464 -1.34663 -1.33889 -1.33111 -1.32334 -1.31556 -1.30775 -1.30017 -1.29262 -1.28508 -1.27752 -1.26999 -1.26265 -1.25532 -1.248 -1.24067 -1.23332 -1.22624 -1.21907 -1.21189 -1.20474 -1.1975 -1.19057 -1.18362 -1.17657 -1.16948 -1.16237 -1.15562 -1.14875 -1.14193 -1.13529 -1.12851 -1.12224 -1.11639 -1.10992 -1.10329 -1.09709 -1.09174 -1.08632 -1.08081 -1.07486 -1.06791 -1.04864 -1.03335 -1.01809 -1.00441 -0.995072 -0.984087 -0.972595 -0.961103 -0.951037 -0.941685 -0.920219 -0.900938 -0.881657 -0.861454 -0.841224 -0.838977 -0.836731 -0.834485 -0.832263 -0.830088 -0.810243 -0.790112 -0.769981 -0.749878 -0.731584 -0.712846 -0.693995 -0.675132 -0.656268 -0.63973 -0.603866 -0.569851 -0.536077 -0.502498 -0.471207 -0.444289 -0.418162 -0.391945 -0.365475 -0.342866 -0.306886 -0.272156 -0.237425 -0.2026 -0.166249 -0.150893 -0.131675 -0.112457 -0.0933137 -0.0695679 -0.0643665 -0.0542977 -0.0442289 -0.0341601 -0.0190252 -0.0205764 -0.0167143 -0.0128523 -0.00899022 0.000382537 -0.00359563 -0.00355185 -0.00350883 -0.00346656 0.0018559