# vtk DataFile Version 2.0
track0
ASCII
DATASET POLYDATA
POINTS 15214 float
-1.001 -0.05 0.0011
-1.00088 -0.05 0.0011
-1.00076 -0.05 0.00109999
-1.00064 -0.05 0.00109999
-1.00052 -0.05 0.00109999
-1.0004 -0.05 0.00109998
-0.975398 -0.05 0.00109925
-0.9504 -0.0499999 0.00109824
-0.925402 -0.0499999 0.00109723
-0.900404 -0.0499998 0.00109622
-0.875406 -0.0499998 0.00109522
-0.850407 -0.0499998 0.00109409
-0.825407 -0.0499996 0.00109261
-0.800408 -0.0499995 0.00109113
-0.775408 -0.0499993 0.00108965
-0.750409 -0.0499992 0.00108818
-0.737914 -0.0499991 0.00108725
-0.72542 -0.0499989 0.00108572
-0.712925 -0.0499987 0.00108419
-0.700431 -0.0499985 0.00108266
-0.687936 -0.0499983 0.00108114
-0.675431 -0.0499984 0.00108007
-0.662926 -0.0499981 0.00107838
-0.65042 -0.0499979 0.00107669
-0.637915 -0.0499977 0.00107501
-0.62541 -0.0499975 0.00107333
-0.612898 -0.0499973 0.00107202
-0.600387 -0.049997 0.0010701
-0.587876 -0.0499968 0.00106818
-0.575365 -0.0499965 0.00106626
-0.562854 -0.0499962 0.00106435
-0.550338 -0.0499963 0.00106278
-0.537822 -0.0499959 0.00106062
-0.525307 -0.0499955 0.00105847
-0.512791 -0.0499952 0.00105632
-0.500275 -0.0499948 0.00105417
-0.487751 -0.0499944 0.00105239
-0.475226 -0.0499939 0.00105008
-0.462701 -0.0499934 0.00104777
-0.450177 -0.0499929 0.00104547
-0.437652 -0.0499925 0.00104318
-0.42513 -0.0499926 0.00104125
-0.412607 -0.0499919 0.00103881
-0.400084 -0.0499913 0.00103637
-0.387562 -0.0499906 0.00103395
-0.375039 -0.04999 0.00103152
-0.362534 -0.0499892 0.00102973
-0.350028 -0.0499884 0.00102809
-0.337522 -0.0499876 0.00102646
-0.325017 -0.0499867 0.00102483
-0.312511 -0.0499859 0.0010232
-0.306259 -0.0499854 0.00102245
-0.300007 -0.0499845 0.00102115
-0.293755 -0.0499836 0.00101984
-0.287503 -0.0499826 0.00101854
-0.281251 -0.0499817 0.00101724
-0.275 -0.0499805 0.0010166
-0.26875 -0.0499793 0.00101561
-0.2625 -0.0499782 0.00101462
-0.25625 -0.0499771 0.00101364
-0.25 -0.0499759 0.00101265
-0.24375 -0.0499754 0.00101224
-0.2375 -0.049974 0.00101152
-0.23125 -0.0499726 0.00101081
-0.225 -0.0499712 0.00101009
-0.21875 -0.0499698 0.00100938
-0.2125 -0.0499682 0.00100923
-0.20625 -0.0499666 0.00100886
-0.2 -0.0499649 0.00100848
-0.19375 -0.0499632 0.00100811
-0.1875 -0.0499616 0.00100774
-0.18125 -0.0499608 0.00100796
-0.175 -0.0499588 0.00100805
-0.16875 -0.0499569 0.00100813
-0.1625 -0.0499549 0.00100821
-0.15625 -0.0499529 0.0010083
-0.153125 -0.0499518 0.00100847
-0.15 -0.0499495 0.00100875
-0.146875 -0.0499473 0.00100902
-0.14375 -0.049945 0.00100929
-0.140625 -0.0499428 0.00100956
-0.1375 -0.0499408 0.00100984
-0.134374 -0.0499382 0.00101032
-0.131249 -0.0499357 0.0010108
-0.128124 -0.0499331 0.00101128
-0.124999 -0.0499305 0.00101175
-0.121874 -0.0499291 0.00101215
-0.118749 -0.0499263 0.0010128
-0.115624 -0.0499234 0.00101345
-0.112499 -0.0499205 0.0010141
-0.109374 -0.0499177 0.00101474
-0.106249 -0.0499155 0.00101528
-0.103124 -0.0499124 0.00101606
-0.0999989 -0.0499093 0.00101683
-0.0968739 -0.0499062 0.00101761
-0.0937488 -0.0499031 0.00101838
-0.0906239 -0.0499015 0.00101901
-0.0874989 -0.0498981 0.0010199
-0.0843739 -0.0498948 0.0010208
-0.0812489 -0.0498915 0.00102169
-0.0781239 -0.0498881 0.00102258
-0.0749989 -0.0498857 0.00102334
-0.0718739 -0.0498821 0.00102434
-0.0687489 -0.0498786 0.00102534
-0.0656238 -0.049875 0.00102634
-0.0624988 -0.0498715 0.00102735
-0.0593738 -0.0498697 0.00102819
-0.0562488 -0.0498659 0.0010293
-0.0531238 -0.0498621 0.00103041
-0.0499988 -0.0498583 0.00103152
-0.0468738 -0.0498545 0.00103263
-0.0437488 -0.0498519 0.0010336
-0.0406238 -0.0498478 0.00103481
-0.0374988 -0.0498438 0.00103603
-0.0343738 -0.0498398 0.00103725
-0.0312488 -0.0498358 0.00103846
-0.0281239 -0.0498338 0.00103951
-0.0249989 -0.0498296 0.00104083
-0.0218739 -0.0498253 0.00104214
-0.018749 -0.0498211 0.00104346
-0.015624 -0.0498168 0.00104478
-0.012499 -0.0498139 0.00104594
-0.00937393 -0.0498094 0.00104736
-0.00624889 -0.049805 0.00104877
-0.00312386 -0.0498005 0.00105019
1.18308e-06 -0.049796 0.00105161
0.00312621 -0.0497939 0.00105285
0.00625124 -0.0497892 0.00105436
0.00937627 -0.0497845 0.00105587
0.0125013 -0.0497798 0.00105738
0.0156263 -0.0497751 0.0010589
0.0187516 -0.0497719 0.00106024
0.0218768 -0.049767 0.00106184
0.025002 -0.049762 0.00106344
0.0281273 -0.0497571 0.00106505
0.0312525 -0.0497522 0.00106666
0.0343793 -0.0497498 0.00106808
0.037506 -0.0497447 0.00106977
0.0406327 -0.0497395 0.00107146
0.0437595 -0.0497344 0.00107315
0.0468862 -0.0497292 0.00107485
0.050011 -0.0497258 0.00107637
0.0531358 -0.0497204 0.00107814
0.0562606 -0.049715 0.00107992
0.0593853 -0.0497096 0.0010817
0.0625101 -0.0497043 0.00108348
0.065635 -0.0497017 0.00108507
0.0687598 -0.0496962 0.00108692
0.0718846 -0.0496906 0.00108878
0.0750094 -0.049685 0.00109064
0.0781342 -0.0496793 0.00109251
0.0812601 -0.0496756 0.00109418
0.084386 -0.0496698 0.00109612
0.0875119 -0.049664 0.00109805
0.0906377 -0.0496582 0.00109999
0.0937636 -0.0496523 0.00110194
0.0968915 -0.0496496 0.00110368
0.100019 -0.0496436 0.00110569
0.103147 -0.0496376 0.0011077
0.106275 -0.0496315 0.00110972
0.109403 -0.0496255 0.00111174
0.112529 -0.0496215 0.00111355
0.115655 -0.0496153 0.00111563
0.118781 -0.049609 0.00111771
0.121907 -0.0496028 0.0011198
0.125032 -0.0495965 0.00112189
0.128157 -0.0495936 0.00112376
0.131283 -0.0495872 0.00112591
0.134408 -0.0495808 0.00112805
0.137533 -0.0495743 0.0011302
0.140658 -0.0495678 0.00113236
0.143784 -0.0495636 0.0011343
0.146909 -0.049557 0.0011365
0.150035 -0.0495503 0.00113871
0.153161 -0.0495436 0.00114092
0.156287 -0.049537 0.00114313
0.159413 -0.0495339 0.00114513
0.16254 -0.0495271 0.00114739
0.165667 -0.0495202 0.00114965
0.168794 -0.0495133 0.00115192
0.171921 -0.0495064 0.0011542
0.175047 -0.049502 0.00115624
0.178172 -0.0494949 0.00115855
0.181298 -0.0494879 0.00116087
0.184424 -0.0494808 0.00116319
0.18755 -0.0494737 0.00116552
0.190674 -0.0494705 0.00116761
0.193799 -0.0494632 0.00116996
0.196923 -0.049456 0.00117232
0.200048 -0.0494487 0.00117469
0.203172 -0.0494414 0.00117706
0.206296 -0.0494368 0.00117919
0.209421 -0.0494294 0.00118159
0.212545 -0.0494219 0.00118399
0.215669 -0.0494145 0.0011864
0.218794 -0.049407 0.00118881
0.221919 -0.0494037 0.00119098
0.225045 -0.0493961 0.00119341
0.22817 -0.0493884 0.00119586
0.231296 -0.0493808 0.0011983
0.234421 -0.0493732 0.00120075
0.237548 -0.0493683 0.00120295
0.240674 -0.0493605 0.00120542
0.2438 -0.0493528 0.00120789
0.246927 -0.0493449 0.00121038
0.250053 -0.0493371 0.00121286
0.25318 -0.0493336 0.00121509
0.256307 -0.0493257 0.0012176
0.259434 -0.0493177 0.0012201
0.262561 -0.0493098 0.00122262
0.265688 -0.0493018 0.00122513
0.268813 -0.0492967 0.00122738
0.271938 -0.0492886 0.0012299
0.275062 -0.0492805 0.00123244
0.278187 -0.0492724 0.00123497
0.281312 -0.0492643 0.00123752
0.284435 -0.0492606 0.00123979
0.287558 -0.0492524 0.00124233
0.290681 -0.0492442 0.00124488
0.293804 -0.0492359 0.00124744
0.296927 -0.0492276 0.00124999
0.30005 -0.0492224 0.00125227
0.303174 -0.0492141 0.00125483
0.306297 -0.0492057 0.00125739
0.309421 -0.0491973 0.00125996
0.312544 -0.0491889 0.00126253
0.315668 -0.0491852 0.00126483
0.318793 -0.0491767 0.0012674
0.321917 -0.0491682 0.00126998
0.325041 -0.0491597 0.00127256
0.328166 -0.0491511 0.00127515
0.331291 -0.0491458 0.00127744
0.334416 -0.0491372 0.00128002
0.337541 -0.0491285 0.0012826
0.340666 -0.0491199 0.00128519
0.343791 -0.0491112 0.00128779
0.346916 -0.0491074 0.0012901
0.350042 -0.0490987 0.00129269
0.353168 -0.0490899 0.00129528
0.356294 -0.0490812 0.00129788
0.35942 -0.0490724 0.00130048
0.362549 -0.0490669 0.00130278
0.365679 -0.0490581 0.00130537
0.368808 -0.0490492 0.00130797
0.371938 -0.0490403 0.00131057
0.375068 -0.0490314 0.00131318
0.378205 -0.0490275 0.0013155
0.381343 -0.0490185 0.0013181
0.384481 -0.0490096 0.0013207
0.387619 -0.0490006 0.00132331
0.390756 -0.0489916 0.00132592
0.393889 -0.048986 0.00132822
0.397022 -0.048977 0.00133081
0.400155 -0.0489679 0.00133341
0.403288 -0.0489589 0.00133601
0.406421 -0.0489498 0.00133861
0.409551 -0.0489458 0.00134092
0.412682 -0.0489367 0.0013435
0.415813 -0.0489276 0.00134609
0.418943 -0.0489184 0.00134868
0.422074 -0.0489093 0.00135128
0.425204 -0.0489036 0.00135356
0.428334 -0.0488944 0.00135614
0.431464 -0.0488852 0.00135872
0.434594 -0.048876 0.0013613
0.437724 -0.0488668 0.00136389
0.440854 -0.0488627 0.00136618
0.443984 -0.0488535 0.00136875
0.447114 -0.0488442 0.00137132
0.450244 -0.0488349 0.00137389
0.453374 -0.0488256 0.00137647
0.456504 -0.0488198 0.00137873
0.459634 -0.0488105 0.00138128
0.462763 -0.0488012 0.00138384
0.465893 -0.0487919 0.0013864
0.469023 -0.0487825 0.00138897
0.472152 -0.0487784 0.00139124
0.475282 -0.048769 0.00139377
0.478411 -0.0487596 0.00139632
0.481541 -0.0487502 0.00139886
0.48467 -0.0487408 0.00140142
0.4878 -0.048735 0.00140365
0.490929 -0.0487256 0.00140617
0.494058 -0.0487161 0.00140869
0.497187 -0.0487067 0.00141122
0.500317 -0.0486972 0.00141376
0.503446 -0.0486931 0.00141599
0.506575 -0.0486836 0.0014185
0.509704 -0.0486741 0.00142101
0.512833 -0.0486646 0.00142352
0.515962 -0.0486551 0.00142604
0.519091 -0.0486492 0.00142823
0.52222 -0.0486397 0.00143072
0.525348 -0.0486302 0.00143321
0.528477 -0.0486207 0.00143571
0.531606 -0.0486112 0.0014382
0.534734 -0.048607 0.0014404
0.537863 -0.0485975 0.00144286
0.540992 -0.0485879 0.00144533
0.54412 -0.0485784 0.0014478
0.547249 -0.0485688 0.00145028
0.550377 -0.0485629 0.00145243
0.553506 -0.0485533 0.00145488
0.556634 -0.0485438 0.00145732
0.559762 -0.0485342 0.00145977
0.562891 -0.0485246 0.00146222
0.566019 -0.0485204 0.00146438
0.569147 -0.0485108 0.00146679
0.572275 -0.0485013 0.00146921
0.575403 -0.0484917 0.00147164
0.578532 -0.0484821 0.00147407
0.58166 -0.0484761 0.00147617
0.584788 -0.0484666 0.00147857
0.587915 -0.048457 0.00148096
0.591043 -0.0484474 0.00148336
0.594171 -0.0484378 0.00148576
0.597299 -0.0484336 0.00148787
0.600427 -0.048424 0.00149025
0.603555 -0.0484144 0.00149263
[...]
POINT_DATA 15214
 FIELD attributes 1
U 3 15214 float
25.0027 	1.90445e-05 	-0.000700988 25.0025 	1.85955e-05 	-0.000707904 25.0023 	1.81465e-05 	-0.000714819 25.0022 	1.76975e-05 	-0.000721735 25.002 	1.72486e-05 	-0.00072865 25.0019 	1.67996e-05 	-0.000735566 25.0046 	5.08665e-05 	-0.00100942 25.0046 	5.08198e-05 	-0.00100849 25.0046 	5.07731e-05 	-0.00100756 25.0046 	5.07265e-05 	-0.00100664 25.0028 	-4.73965e-06 	-0.00112226 25.0075 	0.000154395 	-0.0014826 25.0075 	0.000154186 	-0.00148059 25.0074 	0.000153977 	-0.00147859 25.0074 	0.000153768 	-0.00147659 25.0093 	0.000212765 	-0.00186114 25.0184 	0.000360527 	-0.00306432 25.0184 	0.00036002 	-0.00306001 25.0183 	0.000359513 	-0.0030557 25.0183 	0.000359007 	-0.0030514 25.0109 	-4.27346e-05 	-0.00214858 25.0235 	0.000432961 	-0.00337693 25.0234 	0.000432285 	-0.00337166 25.0234 	0.000431609 	-0.00336639 25.0234 	0.000430935 	-0.00336113 25.0135 	0.000394097 	-0.00261005 25.0295 	0.000551658 	-0.0038507 25.0294 	0.000550667 	-0.00384378 25.0294 	0.000549679 	-0.00383688 25.0293 	0.000548692 	-0.00382999 25.0167 	-9.34478e-05 	-0.00312223 25.0366 	0.000729127 	-0.00432046 25.0366 	0.000727646 	-0.00431168 25.0365 	0.000726167 	-0.00430292 25.0364 	0.000724691 	-0.00429417 25.0204 	0.000814022 	-0.00356215 25.0449 	0.000968909 	-0.0046189 25.0448 	0.000966782 	-0.00460876 25.0447 	0.00096466 	-0.00459865 25.0446 	0.000962543 	-0.00458855 25.0251 	-0.000191801 	-0.00385992 25.0552 	0.00129888 	-0.00488047 25.055 	0.00129584 	-0.00486904 25.0549 	0.0012928 	-0.00485763 25.0548 	0.00128977 	-0.00484625 25.0302 	0.00156613 	-0.00359382 25.0652 	0.00163539 	-0.00327708 25.0651 	0.0016328 	-0.00327188 25.065 	0.0016302 	-0.00326669 25.0649 	0.00162762 	-0.0032615 25.071 	0.00193774 	-0.00301387 25.1403 	0.00378888 	-0.00524793 25.1401 	0.00378405 	-0.00524123 25.1399 	0.00377922 	-0.00523454 25.1397 	0.00377439 	-0.00522786 25.0742 	0.00486972 	-0.00257431 25.1503 	0.00455698 	-0.00398055 25.1502 	0.00455255 	-0.00397667 25.1501 	0.00454812 	-0.0039728 25.1499 	0.00454369 	-0.00396894 25.0795 	0.00237439 	-0.00163605 25.1586 	0.00556689 	-0.00288775 25.1585 	0.00556295 	-0.0028857 25.1584 	0.005559 	-0.00288366 25.1583 	0.00555506 	-0.00288161 25.0829 	0.00633685 	-0.000590602 25.1658 	0.00672745 	-0.00150257 25.1657 	0.00672496 	-0.00150202 25.1657 	0.00672247 	-0.00150146 25.1656 	0.00671999 	-0.00150091 25.087 	0.00302327 	0.000907418 25.1706 	0.00796097 	0.000337844 25.1706 	0.00796163 	0.000337872 25.1706 	0.0079623 	0.0003379 25.1706 	0.00796296 	0.000337928 25.1734 	0.00927589 	0.00141152 25.3456 	0.018225 	0.00220814 25.3457 	0.01823 	0.00220874 25.3458 	0.0182349 	0.00220933 25.3459 	0.0182398 	0.00220993 25.1747 	0.0157488 	0.00224913 25.3509 	0.0208361 	0.00387285 25.3511 	0.020846 	0.00387468 25.3512 	0.0208559 	0.00387651 25.3514 	0.0208657 	0.00387835 25.1778 	0.0112735 	0.00322644 25.3545 	0.0232038 	0.00524857 25.3547 	0.0232186 	0.00525192 25.355 	0.0232334 	0.00525528 25.3552 	0.0232483 	0.00525864 25.1784 	0.0176878 	0.00433358 25.357 	0.0251556 	0.00628475 25.3573 	0.0251748 	0.00628954 25.3576 	0.025194 	0.00629434 25.3578 	0.0252132 	0.00629914 25.1803 	0.0129379 	0.005075 25.3581 	0.027023 	0.00723468 25.3584 	0.0270467 	0.00724101 25.3587 	0.0270703 	0.00724735 25.359 	0.027094 	0.00725369 25.1797 	0.019578 	0.00608921 25.3582 	0.0288289 	0.00812045 25.3585 	0.0288571 	0.00812839 25.3589 	0.0288854 	0.00813634 25.3592 	0.0289136 	0.0081443 25.1808 	0.0144074 	0.00677043 25.3579 	0.0306789 	0.00900432 25.3583 	0.030712 	0.00901404 25.3587 	0.0307451 	0.00902377 25.3591 	0.0307783 	0.00903351 25.1798 	0.0215747 	0.00774727 25.3568 	0.0325244 	0.00985978 25.3572 	0.0325627 	0.00987137 25.3576 	0.032601 	0.00988297 25.358 	0.0326393 	0.00989459 25.18 	0.015895 	0.00841279 25.3548 	0.0343738 	0.0106814 25.3552 	0.0344173 	0.010695 25.3557 	0.0344609 	0.0107085 25.3561 	0.0345045 	0.0107221 25.1782 	0.0236163 	0.00932755 25.3519 	0.0362309 	0.0114735 25.3524 	0.0362798 	0.011489 25.3529 	0.0363289 	0.0115045 25.3534 	0.036378 	0.0115201 25.1775 	0.0173828 	0.00997461 25.3482 	0.0380399 	0.0122382 25.3487 	0.0380944 	0.0122557 25.3492 	0.038149 	0.0122733 25.3497 	0.0382036 	0.0122909 25.1747 	0.0256495 	0.010818 25.3436 	0.0398584 	0.0129769 25.3441 	0.0399186 	0.0129965 25.3446 	0.0399789 	0.0130161 25.3452 	0.0400392 	0.0130358 25.1733 	0.0188597 	0.0114492 25.3385 	0.0416794 	0.013692 25.339 	0.0417453 	0.0137137 25.3396 	0.0418114 	0.0137354 25.3401 	0.0418775 	0.0137571 25.17 	0.0277031 	0.0122128 25.3327 	0.0434745 	0.0143779 25.3333 	0.0435461 	0.0144016 25.3338 	0.0436179 	0.0144253 25.3344 	0.0436897 	0.0144491 25.1675 	0.0202996 	0.0127966 25.3262 	0.0452681 	0.0150353 25.3268 	0.0453454 	0.015061 25.3273 	0.045423 	0.0150867 25.3279 	0.0455006 	0.0151125 25.1639 	0.0297481 	0.0134864 25.3191 	0.0470474 	0.0156611 25.3197 	0.0471305 	0.0156888 25.3202 	0.0472138 	0.0157165 25.3208 	0.0472972 	0.0157443 25.1606 	0.0217365 	0.0140188 25.3116 	0.0487776 	0.0162594 25.3122 	0.0488664 	0.016289 25.3127 	0.0489554 	0.0163186 25.3133 	0.0490445 	0.0163483 25.1565 	0.0317389 	0.0146194 25.3034 	0.0504719 	0.0168188 25.304 	0.050566 	0.0168502 25.3046 	0.0506604 	0.0168816 25.3051 	0.0507549 	0.0169131 25.1526 	0.0231173 	0.0150992 25.2946 	0.0521373 	0.0173377 25.2952 	0.0522367 	0.0173708 25.2958 	0.0523362 	0.0174039 25.2963 	0.052436 	0.0174371 25.1479 	0.0336458 	0.0155979 25.2855 	0.0537833 	0.0178224 25.2861 	0.0538877 	0.017857 25.2867 	0.0539924 	0.0178917 25.2872 	0.0540973 	0.0179264 25.1435 	0.0244665 	0.0160315 25.2762 	0.0554333 	0.0182743 25.2768 	0.0555428 	0.0183104 25.2773 	0.0556524 	0.0183465 25.2779 	0.0557623 	0.0183827 25.1387 	0.0355469 	0.016432 25.2665 	0.0570273 	0.0186884 25.267 	0.0571413 	0.0187257 25.2676 	0.0572556 	0.0187632 25.2681 	0.0573701 	0.0188007 25.1339 	0.0257789 	0.0168125 25.2563 	0.0585324 	0.0190547 25.2568 	0.0586506 	0.0190931 25.2573 	0.058769 	0.0191317 25.2579 	0.0588877 	0.0191703 25.1286 	0.0372855 	0.0171037 25.2457 	0.0599702 	0.0193771 25.2462 	0.0600922 	0.0194165 25.2467 	0.0602144 	0.019456 25.2473 	0.0603369 	0.0194956 25.1233 	0.0269554 	0.0174273 25.2351 	0.0613678 	0.0196711 25.2356 	0.0614933 	0.0197113 25.2361 	0.0616191 	0.0197516 25.2366 	0.0617451 	0.019792 25.118 	0.0388997 	0.0176279 25.2245 	0.0627246 	0.0199372 25.225 	0.0628534 	0.0199782 25.2254 	0.0629825 	0.0200192 25.2259 	0.0631119 	0.0200603 25.1127 	0.0280865 	0.0179109 25.2139 	0.0640354 	0.0201803 25.2143 	0.0641673 	0.0202219 25.2147 	0.0642995 	0.0202635 25.2152 	0.0644319 	0.0203053 25.1073 	0.0404477 	0.0180333 25.203 	0.0652558 	0.020377 25.2034 	0.0653901 	0.0204189 25.2038 	0.0655247 	0.020461 25.2042 	0.0656596 	0.0205031 25.1017 	0.0291188 	0.0182733 25.1917 	0.0663609 	0.0205182 25.1921 	0.0664971 	0.0205603 25.1925 	0.0666335 	0.0206025 25.1929 	0.0667702 	0.0206447 25.096 	0.0417349 	0.0182858 25.1805 	0.0673884 	0.0206242 25.1808 	0.0675261 	0.0206664 25.1812 	0.067664 	0.0207086 25.1816 	0.0678023 	0.0207509 25.0903 	0.0299573 	0.0184713 25.1694 	0.06837 	0.020705 25.1697 	0.0685089 	0.0207471 25.1701 	0.0686481 	0.0207893 25.1704 	0.0687876 	0.0208315 25.0849 	0.0428805 	0.0184172 25.1585 	0.0693109 	0.0207644 25.1588 	0.0694508 	0.0208064 25.1591 	0.0695911 	0.0208484 25.1594 	0.0697316 	0.0208905 25.0793 	0.0307472 	0.0185727 25.1478 	0.0702034 	0.0208021 25.1481 	0.0703441 	0.0208438 25.1484 	0.070485 	0.0208855 25.1487 	0.0706263 	0.0209274 25.0741 	0.043934 	0.0184529 25.1372 	0.0710306 	0.0208153 25.1375 	0.0711718 	0.0208567 25.1378 	0.0713134 	0.0208982 25.138 	0.0714553 	0.0209397 25.0687 	0.0314579 	0.018585 25.1267 	0.0717158 	0.0208013 25.1269 	0.0718574 	0.0208423 25.1272 	0.0719993 	0.0208835 25.1274 	0.0721414 	0.0209247 25.0635 	0.0447527 	0.0183945 25.1164 	0.0723483 	0.0207585 25.1166 	0.0724894 	0.020799 25.1168 	0.0726307 	0.0208396 25.1171 	0.0727723 	0.0208802 25.0583 	0.0319959 	0.0184908 25.1064 	0.0729849 	0.0207082 25.1066 	0.0731254 	0.020748 25.1069 	0.0732663 	0.020788 25.1071 	0.0734073 	0.020828 25.0534 	0.0455226 	0.0182678 25.0968 	0.0735819 	0.0206443 25.097 	0.0737218 	0.0206835 25.0972 	0.0738621 	0.0207229 25.0973 	0.0740026 	0.0207623 25.0485 	0.0325139 	0.0183429 25.0874 	0.0741219 	0.0205603 25.0875 	0.0742611 	0.0205989 25.0877 	0.0744005 	0.0206376 25.0879 	0.0745402 	0.0206763 25.0439 	0.0461996 	0.0180813 25.0782 	0.0746021 	0.0204545 25.0784 	0.0747402 	0.0204923 25.0785 	0.0748786 	0.0205303 25.0786 	0.0750172 	0.0205683 25.0392 	0.0329347 	0.0181278 25.0693 	0.0750252 	0.020333 25.0695 	0.0751621 	0.0203701 25.0696 	0.0752992 	0.0204072 25.0697 	0.0754366 	0.0204445 25.035 	0.0467426 	0.0178332 25.0607 	0.075397 	0.0201958 25.0609 	0.0755325 	0.0202321 25.061 	0.0756682 	0.0202685 25.0611 	0.0758041 	0.0203049 25.0304 	0.0332614 	0.0178588 25.0524 	0.0757128 	0.0200585 25.0525 	0.0758467 	0.020094 25.0526 	0.0759809 	0.0201295 25.0527 	0.0761153 	0.0201652 25.0265 	0.0471628 	0.017545 25.0445 	0.0759728 	0.0199003 25.0445 	0.076105 	0.0199349 25.0446 	0.0762375 	0.0199696 25.0447 	0.0763702 	0.0200044 25.0223 	0.0334971 	0.017549 25.0368 	0.0761823 	0.0197224 25.0369 	0.0763126 	0.0197561 25.0369 	0.0764432 	0.0197899 25.037 	0.076574 	0.0198238 25.0187 	0.0474547 	0.017218 25.0295 	0.0763383 	0.0195316 25.0295 	0.0764666 	0.0195645 25.0296 	0.0765951 	0.0195973 25.0296 	0.0767238 	0.0196303 25.0147 	0.0336447 	0.0172035 25.0225 	0.0764425 	0.0193292 25.0225 	0.0765687 	0.0193611 25.0225 	0.076695 	0.0193931 25.0226 	0.0768216 	0.0194251 25.0115 	0.0476256 	0.0168663 25.0158 	0.0764714 	0.0191268 25.0158 	0.0765953 	0.0191577 25.0158 	0.0767194 	0.0191888 25.0159 	0.0768437 	0.0192199 25.0078 	0.0336907 	0.016874 25.0098 	0.076467 	0.0189861 25.0098 	0.076589 	0.0190164 25.0098 	0.0767113 	0.0190467 25.0098 	0.0768337 	0.0190771 25.005 	0.0476847 	0.0165802 25.0032 	0.0764434 	0.0188899 25.0032 	0.0765638 	0.0189196 25.0032 	0.0766845 	0.0189494 25.0032 	0.0768053 	0.0189793 25.0014 	0.0337 	0.0166221 24.9974 	0.0764342 	0.018796 24.9974 	0.0765531 	0.0188253 24.9973 	0.0766723 	0.0188545 24.9973 	0.0767916 	0.0188839 24.9989 	0.0476758 	0.0163303 24.9913 	0.0763387 	0.0186464 24.9913 	0.0764557 	0.018675 24.9913 	0.0765729 	0.0187036 24.9912 	0.0766902 	0.0187323 24.9956 	0.0336601 	0.0163469 24.9861 	0.0762442 	0.0185446 24.9861 	0.0763595 	0.0185727 24.986 	0.0764751 	0.0186008 24.986 	0.0765908 	0.0186289 24.9933 	0.0476033 	0.0160783 24.9801 	0.0761516 	0.018475 24.9801 	0.0762656 	0.0185026 24.9801 	0.0763797 	0.0185303 24.98 	0.0764941 	0.0185581 24.9902 	0.0335926 	0.0160824 24.9749 	0.0760519 	0.0183161 24.9749 	0.076164 	0.018343 24.9748 	0.0762762 	0.0183701 24.9748 	0.0763886 	0.0183971 24.9882 	0.0475015 	0.0157691 24.9701 	0.0758996 	0.0180939 24.9701 	0.0760093 	0.0181201 24.97 	0.0761191 	0.0181463 24.97 	0.0762292 	0.0181725 24.9854 	0.0334806 	0.0156967 24.9655 	0.0757035 	0.0178598 24.9655 	0.0758108 	0.0178851 24.9654 	0.0759182 	0.0179104 24.9654 	0.075909 	0.0179299 24.9837 	0.047188 	0.0153826 24.9615 	0.0749122 	0.0176111 24.9616 	0.0747499 	0.0176204 24.9617 	0.0745881 	0.0176297 24.9617 	0.0744269 	0.0176391 24.9811 	0.0333141 	0.0153168 24.9583 	0.0734993 	0.0173419 24.9584 	0.0733426 	0.0173526 24.9585 	0.0731864 	0.0173634 24.9585 	0.0730307 	0.0173742 24.9796 	0.0461638 	0.0150358 24.9553 	0.0720408 	0.017059 24.9553 	0.071886 	0.0170677 24.9554 	0.0717317 	0.0170765 24.9555 	0.0715779 	0.0170853 24.9773 	0.0331171 	0.0149667 24.9528 	0.0706919 	0.0168317 24.9528 	0.0705427 	0.0168417 24.9529 	0.0703939 	0.0168518 24.953 	0.0702457 	0.0168619 24.9761 	0.0451491 	0.0147201 24.9503 	0.0692681 	0.016563 24.9503 	0.0691208 	0.0165712 24.9504 	0.0689741 	0.0165795 24.9505 	0.0688278 	0.0165879 24.974 	0.0328966 	0.014648 24.9483 	0.0679902 	0.016366 24.9484 	0.0678484 	0.0163754 24.9485 	0.0677071 	0.0163849 24.9486 	0.0675663 	0.0163944 24.973 	0.0441558 	0.0144308 24.9463 	0.0665899 	0.0161054 24.9464 	0.0664502 	0.0161132 24.9465 	0.0663108 	0.0161211 24.9466 	0.066172 	0.016129 24.9712 	0.0326538 	0.0143526 24.9449 	0.0653305 	0.0159331 24.9451 	0.0651536 	0.01594 24.9452 	0.0649772 	0.0159469 24.9454 	0.0648014 	0.0159539 24.9703 	0.0430924 	0.0141587 24.9435 	0.063786 	0.0156731 24.9436 	0.063613 	0.0156784 24.9438 	0.0634406 	0.0156838 24.9439 	0.0632687 	0.0156891 24.9687 	0.0323949 	0.0140729 24.9427 	0.0624609 	0.0155118 24.9428 	0.0622953 	0.0155185 24.943 	0.0621303 	0.0155252 24.9431 	0.0619658 	0.0155319 24.968 	0.0420097 	0.0138966 24.9416 	0.0609852 	0.015244 24.9417 	0.0608233 	0.0152493 24.9419 	0.060662 	0.0152545 24.942 	0.0605011 	0.0152598 24.9665 	0.0321319 	0.0138 24.9411 	0.0597551 	0.0151079 24.9413 	0.059597 	0.0151141 24.9414 	0.0594395 	0.0151205 24.9416 	0.0592824 	0.0151268 24.966 	0.040979 	0.0136456 24.9404 	0.058333 	0.0148365 24.9405 	0.0581815 	0.0148417 24.9407 	0.0580305 	0.0148469 24.9408 	0.05788 	0.0148521 24.9647 	0.0318691 	0.0135378 24.9402 	0.0571689 	0.0147252 24.9404 	0.0570149 	0.014731 24.9405 	0.0568613 	0.0147368 24.9407 	0.0567081 	0.0147427 24.9643 	0.0400117 	0.0133904 24.94 	0.055765 	0.0143852 24.9402 	0.0555583 	0.0143875 24.9403 	0.0553522 	0.0143899 24.9405 	0.0551467 	0.0143922 24.9632 	0.0316433 	0.0132784 24.9405 	0.0542535 	0.0145422 24.9407 	0.0539908 	0.0145398 24.941 	0.0537288 	0.0145374 24.9412 	0.0534675 	0.014535 24.9629 	0.0388582 	0.013115 24.941 	0.0527329 	0.013052 24.9414 	0.05225 	0.0130619 24.9419 	0.0517684 	0.0130718 24.9424 	0.0512883 	0.0130817 24.9621 	0.0314997 	0.0130053 24.9618 	0.0311015 	0.0127364 24.9617 	0.031158 	0.0127596 24.9617 	0.0312147 	0.0127828 24.9616 	0.0312714 	0.012806 24.9838 	0.0239681 	0.0133525 24.961 	0.0310408 	0.0123014 24.9609 	0.0310947 	0.0123228 24.9608 	0.0311487 	0.0123442 24.9608 	0.0312028 	0.0123656 24.983 	0.00990296 	0.0129559 24.9604 	0.0304467 	0.0125035 24.9603 	0.0305 	0.0125254 24.9603 	0.0305534 	0.0125473 24.9602 	0.0306068 	0.0125692 24.9831 	0.0237642 	0.0128151 24.9594 	0.03205 	0.00977276 24.9594 	0.0320935 	0.00978603 24.9593 	0.0321371 	0.00979931 24.9593 	0.0321807 	0.00981261 24.9824 	0.00982666 	0.0124345 24.9821 	0.00957426 	0.0120726 24.982 	0.00960605 	0.0121126 24.9819 	0.00963794 	0.0121529 24.9819 	0.00966994 	0.0121932 24.9929 	-0.002177 	0.0137013 24.9815 	0.00941781 	0.0118119 24.9814 	0.00944789 	0.0118497 24.9814 	0.00947806 	0.0118875 24.9813 	0.00950832 	0.0119255 24.9928 	0.0124587 	0.0133449 24.9811 	0.00930605 	0.0116478 24.9811 	0.00933488 	0.0116839 24.981 	0.00936379 	0.0117201 24.981 	0.00939279 	0.0117564 24.9925 	-0.0021267 	0.0132695 24.9811 	0.00905025 	0.0112206 24.9811 	0.00907683 	0.0112535 24.981 	0.00910349 	0.0112866 24.9809 	0.00913022 	0.0113197 24.9926 	0.0123796 	0.0129959 24.9815 	0.00955037 	0.0115133 24.9814 	0.00957872 	0.0115475 24.9814 	0.00960715 	0.0115817 24.9813 	0.00963567 	0.0116161 24.9926 	-0.00212471 	0.0128953 24.9818 	0.00691465 	0.00903055 24.9817 	0.0069305 	0.00905126 24.9817 	0.0069464 	0.00907202 24.9816 	0.00696233 	0.00909282 24.9928 	0.0124356 	0.0127403 24.9929 	0.0123669 	0.0125544 24.9928 	0.0124446 	0.0126332 24.9928 	0.0125227 	0.0127125 24.9927 	0.0126013 	0.0127923 24.9968 	-0.00117435 	0.0138621 24.9927 	0.0122522 	0.0122198 24.9927 	0.0123247 	0.012292 24.9926 	0.0123976 	0.0123648 24.9926 	0.0124709 	0.0124379 24.997 	0.0147239 	0.0126868 24.9932 	0.0129818 	0.0126686 24.9932 	0.0130592 	0.0127441 24.9932 	0.013137 	0.0128201 24.9931 	0.0132153 	0.0128965 24.9972 	-0.00120744 	0.0136515 24.9945 	0.0103172 	0.0105911 24.9945 	0.0103671 	0.0106423 24.9944 	0.0104172 	0.0106937 24.9944 	0.0104676 	0.0107455 24.9976 	0.0155481 	0.0126987 24.9982 	0.0164684 	0.0125887 24.9982 	0.016652 	0.012729 24.9981 	0.0168376 	0.0128709 24.9981 	0.0170253 	0.0130144 24.9983 	-0.000859712 	0.0151312 24.9977 	0.0175941 	0.0124967 24.9976 	0.017778 	0.0126273 24.9976 	0.0179638 	0.0127593 24.9976 	0.0181515 	0.0128926 24.998 	0.0189683 	0.00966668 24.9975 	0.0186253 	0.0117992 24.9975 	0.0188003 	0.01191 24.9975 	0.0189769 	0.0120219 24.9975 	0.0191551 	0.0121348 24.9981 	-0.000968749 	0.0146757 24.999 	0.0161133 	0.00933111 24.999 	0.0162273 	0.00939713 24.999 	0.0163421 	0.00946362 24.999 	0.0164578 	0.00953058 24.9987 	0.0192746 	0.00933303 24.9994 	0.0195594 	0.00897533 24.9994 	0.0198147 	0.00909248 24.9994 	0.0200734 	0.00921117 24.9993 	0.0203354 	0.00933141 24.995 	-0.000183274 	0.00920749 24.9989 	0.020617 	0.0086292 24.9989 	0.0208596 	0.00873073 24.9989 	0.021105 	0.00883346 24.9989 	0.0213534 	0.0089374 24.9975 	0.00767755 	0.00246918 24.9985 	0.0211743 	0.00841423 24.9984 	0.0214054 	0.00850607 24.9984 	0.0216391 	0.0085989 24.9984 	0.0218752 	0.00869275 24.9952 	-0.000259451 	0.00929974 24.9985 	0.0219857 	0.00942556 24.9984 	0.0222401 	0.00953463 24.9984 	0.0224975 	0.00964497 24.9984 	0.0227578 	0.00975658 24.9973 	0.00789528 	0.00289129 24.9972 	0.00765849 	0.00312236 24.9971 	0.00771419 	0.00314507 24.9971 	0.0077703 	0.00316795 24.9971 	0.00782682 	0.00319099 24.9986 	-8.21769e-06 	0.00185753 24.9973 	0.00718492 	0.00348414 24.9973 	0.00724133 	0.0035115 24.9973 	0.00729818 	0.00353907 24.9973 	0.00735548 	0.00356685 24.9986 	-1.33834e-05 	0.00198239 24.9974 	0.00703912 	0.00363972 24.9974 	0.00709484 	0.00366853 24.9974 	0.00715099 	0.00369756 24.9974 	0.00720759 	0.00372683 24.9986 	-1.54735e-05 	0.00204028 24.9974 	0.00699487 	0.00372255 24.9974 	0.0070495 	0.00375163 24.9974 	0.00710456 	0.00378093 24.9974 	0.00716004 	0.00381046 24.9985 	-1.70085e-05 	0.00208282 24.9974 	0.00697858 	0.0037772 24.9974 	0.00703196 	0.00380609 24.9974 	0.00708575 	0.00383521 24.9973 	0.00713995 	0.00386455 24.9985 	-1.84684e-05 	0.00211993 24.9974 	0.00697868 	0.00381284 24.9974 	0.00703074 	0.00384127 24.9973 	0.00708318 	0.00386993 24.9973 	0.00713601 	0.00389879 24.9985 	-1.96845e-05 	0.0021525 24.9974 	0.00699084 	0.00383384 24.9973 	0.00704152 	0.00386163 24.9973 	0.00709258 	0.00388963 24.9973 	0.00714401 	0.00391783 24.9984 	-2.06272e-05 	0.0021813 24.9974 	0.00701038 	0.00384382 24.9973 	0.0070597 	0.00387085 24.9973 	0.00710936 	0.00389808 24.9973 	0.00715937 	0.0039255 24.9984 	-2.14379e-05 	0.00220786 24.9973 	0.00703633 	0.00385025 24.9973 	0.00708435 	0.00387652 24.9973 	0.0071327 	0.00390298 24.9973 	0.00718137 	0.00392961 24.9984 	-2.21644e-05 	0.00222664 24.97 	0.00549831 	0.0421169 24.9418 	0.00441356 	0.08156 24.9134 	0.00381147 	0.121199 24.885 	0.00369555 	0.161035 24.8611 	0.00278419 	0.190867