# vtk DataFile Version 2.0
track0
ASCII
DATASET POLYDATA
POINTS 15214 float
-1.001 -0.05 0.0011
-1.00088 -0.05 0.0011
-1.00076 -0.05 0.00109999
-1.00064 -0.05 0.00109999
-1.00052 -0.05 0.00109999
-1.0004 -0.05 0.00109998
-0.975398 -0.05 0.00109925
-0.9504 -0.0499999 0.00109824
-0.925402 -0.0499999 0.00109723
-0.900404 -0.0499998 0.00109622
-0.875406 -0.0499998 0.00109522
-0.850407 -0.0499998 0.00109409
-0.825407 -0.0499996 0.00109261
-0.800408 -0.0499995 0.00109113
-0.775408 -0.0499993 0.00108965
-0.750409 -0.0499992 0.00108818
-0.737914 -0.0499991 0.00108725
-0.72542 -0.0499989 0.00108572
-0.712925 -0.0499987 0.00108419
-0.700431 -0.0499985 0.00108266
-0.687936 -0.0499983 0.00108114
-0.675431 -0.0499984 0.00108007
-0.662926 -0.0499981 0.00107838
-0.65042 -0.0499979 0.00107669
-0.637915 -0.0499977 0.00107501
-0.62541 -0.0499975 0.00107333
-0.612898 -0.0499973 0.00107202
-0.600387 -0.049997 0.0010701
-0.587876 -0.0499968 0.00106818
-0.575365 -0.0499965 0.00106626
-0.562854 -0.0499962 0.00106435
-0.550338 -0.0499963 0.00106278
-0.537822 -0.0499959 0.00106062
-0.525307 -0.0499955 0.00105847
-0.512791 -0.0499952 0.00105632
-0.500275 -0.0499948 0.00105417
-0.487751 -0.0499944 0.00105239
-0.475226 -0.0499939 0.00105008
-0.462701 -0.0499934 0.00104777
-0.450177 -0.0499929 0.00104547
-0.437652 -0.0499925 0.00104318
-0.42513 -0.0499926 0.00104125
-0.412607 -0.0499919 0.00103881
-0.400084 -0.0499913 0.00103637
-0.387562 -0.0499906 0.00103395
-0.375039 -0.04999 0.00103152
-0.362534 -0.0499892 0.00102973
-0.350028 -0.0499884 0.00102809
-0.337522 -0.0499876 0.00102646
-0.325017 -0.0499867 0.00102483
-0.312511 -0.0499859 0.0010232
-0.306259 -0.0499854 0.00102245
-0.300007 -0.0499845 0.00102115
-0.293755 -0.0499836 0.00101984
-0.287503 -0.0499826 0.00101854
-0.281251 -0.0499817 0.00101724
-0.275 -0.0499805 0.0010166
-0.26875 -0.0499793 0.00101561
-0.2625 -0.0499782 0.00101462
-0.25625 -0.0499771 0.00101364
-0.25 -0.0499759 0.00101265
-0.24375 -0.0499754 0.00101224
-0.2375 -0.049974 0.00101152
-0.23125 -0.0499726 0.00101081
-0.225 -0.0499712 0.00101009
-0.21875 -0.0499698 0.00100938
-0.2125 -0.0499682 0.00100923
-0.20625 -0.0499666 0.00100886
-0.2 -0.0499649 0.00100848
-0.19375 -0.0499632 0.00100811
-0.1875 -0.0499616 0.00100774
-0.18125 -0.0499608 0.00100796
-0.175 -0.0499588 0.00100805
-0.16875 -0.0499569 0.00100813
-0.1625 -0.0499549 0.00100821
-0.15625 -0.0499529 0.0010083
-0.153125 -0.0499518 0.00100847
-0.15 -0.0499495 0.00100875
-0.146875 -0.0499473 0.00100902
-0.14375 -0.049945 0.00100929
-0.140625 -0.0499428 0.00100956
-0.1375 -0.0499408 0.00100984
-0.134374 -0.0499382 0.00101032
-0.131249 -0.0499357 0.0010108
-0.128124 -0.0499331 0.00101128
-0.124999 -0.0499305 0.00101175
-0.121874 -0.0499291 0.00101215
-0.118749 -0.0499263 0.0010128
-0.115624 -0.0499234 0.00101345
-0.112499 -0.0499205 0.0010141
-0.109374 -0.0499177 0.00101474
-0.106249 -0.0499155 0.00101528
-0.103124 -0.0499124 0.00101606
-0.0999989 -0.0499093 0.00101683
-0.0968739 -0.0499062 0.00101761
-0.0937488 -0.0499031 0.00101838
-0.0906239 -0.0499015 0.00101901
-0.0874989 -0.0498981 0.0010199
-0.0843739 -0.0498948 0.0010208
-0.0812489 -0.0498915 0.00102169
-0.0781239 -0.0498881 0.00102258
-0.0749989 -0.0498857 0.00102334
-0.0718739 -0.0498821 0.00102434
-0.0687489 -0.0498786 0.00102534
-0.0656238 -0.049875 0.00102634
-0.0624988 -0.0498715 0.00102735
-0.0593738 -0.0498697 0.00102819
-0.0562488 -0.0498659 0.0010293
-0.0531238 -0.0498621 0.00103041
-0.0499988 -0.0498583 0.00103152
-0.0468738 -0.0498545 0.00103263
-0.0437488 -0.0498519 0.0010336
-0.0406238 -0.0498478 0.00103481
-0.0374988 -0.0498438 0.00103603
-0.0343738 -0.0498398 0.00103725
-0.0312488 -0.0498358 0.00103846
-0.0281239 -0.0498338 0.00103951
-0.0249989 -0.0498296 0.00104083
-0.0218739 -0.0498253 0.00104214
-0.018749 -0.0498211 0.00104346
-0.015624 -0.0498168 0.00104478
-0.012499 -0.0498139 0.00104594
-0.00937393 -0.0498094 0.00104736
-0.00624889 -0.049805 0.00104877
-0.00312386 -0.0498005 0.00105019
1.18308e-06 -0.049796 0.00105161
0.00312621 -0.0497939 0.00105285
0.00625124 -0.0497892 0.00105436
0.00937627 -0.0497845 0.00105587
0.0125013 -0.0497798 0.00105738
0.0156263 -0.0497751 0.0010589
0.0187516 -0.0497719 0.00106024
0.0218768 -0.049767 0.00106184
0.025002 -0.049762 0.00106344
0.0281273 -0.0497571 0.00106505
0.0312525 -0.0497522 0.00106666
0.0343793 -0.0497498 0.00106808
0.037506 -0.0497447 0.00106977
0.0406327 -0.0497395 0.00107146
0.0437595 -0.0497344 0.00107315
0.0468862 -0.0497292 0.00107485
0.050011 -0.0497258 0.00107637
0.0531358 -0.0497204 0.00107814
0.0562606 -0.049715 0.00107992
0.0593853 -0.0497096 0.0010817
0.0625101 -0.0497043 0.00108348
0.065635 -0.0497017 0.00108507
0.0687598 -0.0496962 0.00108692
0.0718846 -0.0496906 0.00108878
0.0750094 -0.049685 0.00109064
0.0781342 -0.0496793 0.00109251
0.0812601 -0.0496756 0.00109418
0.084386 -0.0496698 0.00109612
0.0875119 -0.049664 0.00109805
0.0906377 -0.0496582 0.00109999
0.0937636 -0.0496523 0.00110194
0.0968915 -0.0496496 0.00110368
0.100019 -0.0496436 0.00110569
0.103147 -0.0496376 0.0011077
0.106275 -0.0496315 0.00110972
0.109403 -0.0496255 0.00111174
0.112529 -0.0496215 0.00111355
0.115655 -0.0496153 0.00111563
0.118781 -0.049609 0.00111771
0.121907 -0.0496028 0.0011198
0.125032 -0.0495965 0.00112189
0.128157 -0.0495936 0.00112376
0.131283 -0.0495872 0.00112591
0.134408 -0.0495808 0.00112805
0.137533 -0.0495743 0.0011302
0.140658 -0.0495678 0.00113236
0.143784 -0.0495636 0.0011343
0.146909 -0.049557 0.0011365
0.150035 -0.0495503 0.00113871
0.153161 -0.0495436 0.00114092
0.156287 -0.049537 0.00114313
0.159413 -0.0495339 0.00114513
0.16254 -0.0495271 0.00114739
0.165667 -0.0495202 0.00114965
0.168794 -0.0495133 0.00115192
0.171921 -0.0495064 0.0011542
0.175047 -0.049502 0.00115624
0.178172 -0.0494949 0.00115855
0.181298 -0.0494879 0.00116087
0.184424 -0.0494808 0.00116319
0.18755 -0.0494737 0.00116552
0.190674 -0.0494705 0.00116761
0.193799 -0.0494632 0.00116996
0.196923 -0.049456 0.00117232
0.200048 -0.0494487 0.00117469
0.203172 -0.0494414 0.00117706
0.206296 -0.0494368 0.00117919
0.209421 -0.0494294 0.00118159
0.212545 -0.0494219 0.00118399
0.215669 -0.0494145 0.0011864
0.218794 -0.049407 0.00118881
0.221919 -0.0494037 0.00119098
0.225045 -0.0493961 0.00119341
0.22817 -0.0493884 0.00119586
0.231296 -0.0493808 0.0011983
0.234421 -0.0493732 0.00120075
0.237548 -0.0493683 0.00120295
0.240674 -0.0493605 0.00120542
0.2438 -0.0493528 0.00120789
0.246927 -0.0493449 0.00121038
0.250053 -0.0493371 0.00121286
0.25318 -0.0493336 0.00121509
0.256307 -0.0493257 0.0012176
0.259434 -0.0493177 0.0012201
0.262561 -0.0493098 0.00122262
0.265688 -0.0493018 0.00122513
0.268813 -0.0492967 0.00122738
0.271938 -0.0492886 0.0012299
0.275062 -0.0492805 0.00123244
0.278187 -0.0492724 0.00123497
0.281312 -0.0492643 0.00123752
0.284435 -0.0492606 0.00123979
0.287558 -0.0492524 0.00124233
0.290681 -0.0492442 0.00124488
0.293804 -0.0492359 0.00124744
0.296927 -0.0492276 0.00124999
0.30005 -0.0492224 0.00125227
0.303174 -0.0492141 0.00125483
0.306297 -0.0492057 0.00125739
0.309421 -0.0491973 0.00125996
0.312544 -0.0491889 0.00126253
0.315668 -0.0491852 0.00126483
0.318793 -0.0491767 0.0012674
0.321917 -0.0491682 0.00126998
0.325041 -0.0491597 0.00127256
0.328166 -0.0491511 0.00127515
0.331291 -0.0491458 0.00127744
0.334416 -0.0491372 0.00128002
0.337541 -0.0491285 0.0012826
0.340666 -0.0491199 0.00128519
0.343791 -0.0491112 0.00128779
0.346916 -0.0491074 0.0012901
0.350042 -0.0490987 0.00129269
0.353168 -0.0490899 0.00129528
0.356294 -0.0490812 0.00129788
0.35942 -0.0490724 0.00130048
0.362549 -0.0490669 0.00130278
0.365679 -0.0490581 0.00130537
0.368808 -0.0490492 0.00130797
0.371938 -0.0490403 0.00131057
0.375068 -0.0490314 0.00131318
0.378205 -0.0490275 0.0013155
0.381343 -0.0490185 0.0013181
0.384481 -0.0490096 0.0013207
0.387619 -0.0490006 0.00132331
0.390756 -0.0489916 0.00132592
0.393889 -0.048986 0.00132822
0.397022 -0.048977 0.00133081
0.400155 -0.0489679 0.00133341
0.403288 -0.0489589 0.00133601
0.406421 -0.0489498 0.00133861
0.409551 -0.0489458 0.00134092
0.412682 -0.0489367 0.0013435
0.415813 -0.0489276 0.00134609
0.418943 -0.0489184 0.00134868
0.422074 -0.0489093 0.00135128
0.425204 -0.0489036 0.00135356
0.428334 -0.0488944 0.00135614
0.431464 -0.0488852 0.00135872
0.434594 -0.048876 0.0013613
0.437724 -0.0488668 0.00136389
0.440854 -0.0488627 0.00136618
0.443984 -0.0488535 0.00136875
0.447114 -0.0488442 0.00137132
0.450244 -0.0488349 0.00137389
0.453374 -0.0488256 0.00137647
0.456504 -0.0488198 0.00137873
0.459634 -0.0488105 0.00138128
0.462763 -0.0488012 0.00138384
0.465893 -0.0487919 0.0013864
0.469023 -0.0487825 0.00138897
0.472152 -0.0487784 0.00139124
0.475282 -0.048769 0.00139377
0.478411 -0.0487596 0.00139632
0.481541 -0.0487502 0.00139886
0.48467 -0.0487408 0.00140142
0.4878 -0.048735 0.00140365
0.490929 -0.0487256 0.00140617
0.494058 -0.0487161 0.00140869
0.497187 -0.0487067 0.00141122
0.500317 -0.0486972 0.00141376
0.503446 -0.0486931 0.00141599
0.506575 -0.0486836 0.0014185
0.509704 -0.0486741 0.00142101
0.512833 -0.0486646 0.00142352
0.515962 -0.0486551 0.00142604
0.519091 -0.0486492 0.00142823
0.52222 -0.0486397 0.00143072
0.525348 -0.0486302 0.00143321
0.528477 -0.0486207 0.00143571
0.531606 -0.0486112 0.0014382
0.534734 -0.048607 0.0014404
0.537863 -0.0485975 0.00144286
0.540992 -0.0485879 0.00144533
0.54412 -0.0485784 0.0014478
0.547249 -0.0485688 0.00145028
0.550377 -0.0485629 0.00145243
0.553506 -0.0485533 0.00145488
0.556634 -0.0485438 0.00145732
0.559762 -0.0485342 0.00145977
0.562891 -0.0485246 0.00146222
0.566019 -0.0485204 0.00146438
0.569147 -0.0485108 0.00146679
0.572275 -0.0485013 0.00146921
0.575403 -0.0484917 0.00147164
0.578532 -0.0484821 0.00147407
0.58166 -0.0484761 0.00147617
0.584788 -0.0484666 0.00147857
0.587915 -0.048457 0.00148096
0.591043 -0.0484474 0.00148336
0.594171 -0.0484378 0.00148576
0.597299 -0.0484336 0.00148787
0.600427 -0.048424 0.00149025
0.603555 -0.0484144 0.00149263
[...]
POINT_DATA 15214
 FIELD attributes 2
p 1 15214 float
-4.96331 -4.96488 -4.96646 -4.96803 -4.9696 -4.97117 -5.48439 -5.99687 -6.51968 -7.04249 -7.56231 -8.45554 -9.35372 -10.2519 -11.1481 -12.0019 -12.5785 -13.1685 -13.7585 -14.3485 -15.0066 -15.8385 -16.6624 -17.4863 -18.3101 -19.1307 -20.0861 -21.0391 -21.9921 -22.9452 -23.904 -25.0696 -26.2263 -27.3829 -28.5395 -29.699 -31.0983 -32.4975 -33.8966 -35.2958 -36.7112 -38.3695 -40.0184 -41.6672 -43.3161 -44.9761 -46.8046 -48.634 -50.4635 -52.2929 -54.4294 -55.254 -56.1133 -57.0755 -58.0377 -59.0179 -59.9157 -60.8116 -61.7074 -62.6161 -63.5213 -64.2691 -65.0181 -65.7559 -66.4936 -67.2345 -67.8664 -68.5063 -69.1462 -69.7926 -70.448 -70.9811 -71.5147 -72.0296 -72.5339 -72.9994 -73.1004 -73.2578 -73.4151 -73.5725 -73.7937 -73.936 -74.0901 -74.2442 -74.3982 -74.5804 -74.6774 -74.7847 -74.892 -74.9993 -75.1309 -75.1911 -75.2515 -75.3118 -75.3722 -75.4378 -75.4495 -75.4634 -75.4774 -75.4913 -75.5092 -75.4774 -75.4451 -75.4129 -75.3806 -75.3493 -75.2722 -75.1951 -75.1181 -75.0411 -74.9651 -74.847 -74.7272 -74.6073 -74.4875 -74.3669 -74.2074 -74.0467 -73.886 -73.7253 -73.5645 -73.3677 -73.1681 -72.9684 -72.7688 -72.5675 -72.3329 -72.0965 -71.86 -71.6235 -71.3865 -71.1194 -70.8487 -70.578 -70.3073 -70.0348 -69.7347 -69.4326 -69.1305 -68.8283 -68.5257 -68.1994 -67.8691 -67.5388 -67.2085 -66.8764 -66.5232 -66.1678 -65.8124 -65.457 -65.1013 -64.7278 -64.3501 -63.9725 -63.5948 -63.2153 -62.8207 -62.4238 -62.0269 -61.63 -61.2329 -60.8243 -60.4116 -59.9988 -59.5861 -59.1715 -58.7479 -58.322 -57.8962 -57.4703 -57.0441 -56.6118 -56.1754 -55.739 -55.3027 -54.8645 -54.4225 -53.9784 -53.5343 -53.0902 -52.6459 -52.2008 -51.7518 -51.3029 -50.8539 -50.4035 -49.9544 -49.5032 -49.052 -48.6008 -48.1495 -47.7019 -47.2506 -46.7993 -46.348 -45.8953 -45.4478 -44.9983 -44.5489 -44.0994 -43.6497 -43.2072 -42.7614 -42.3155 -41.8696 -41.4223 -40.9838 -40.5435 -40.1031 -39.6627 -39.2222 -38.7923 -38.3593 -37.9263 -37.4933 -37.0591 -36.6367 -36.2124 -35.7882 -35.3639 -34.9394 -34.5277 -34.1132 -33.6986 -33.2841 -32.8684 -32.4661 -32.062 -31.658 -31.2539 -30.8493 -30.4591 -30.0663 -29.6734 -29.2806 -28.8865 -28.5074 -28.1265 -27.7455 -27.3646 -26.983 -26.6168 -26.2482 -25.8796 -25.5109 -25.1411 -24.7869 -24.4309 -24.0748 -23.7188 -23.3621 -23.0222 -22.68 -22.3378 -21.9956 -21.6522 -21.3258 -20.9977 -20.6696 -20.3416 -20.0127 -19.7009 -19.387 -19.073 -18.7591 -18.444 -18.1458 -17.846 -17.5461 -17.2462 -16.9454 -16.6615 -16.3755 -16.0895 -15.8035 -15.5163 -15.2457 -14.9734 -14.7011 -14.4288 -14.1554 -13.8986 -13.6398 -13.381 -13.1222 -12.862 -12.6183 -12.3728 -12.1273 -11.8817 -11.635 -11.4044 -11.1718 -10.9392 -10.7067 -10.4727 -10.2544 -10.0342 -9.81405 -9.59388 -9.37237 -9.16605 -8.95758 -8.7491 -8.54062 -8.33055 -8.13491 -7.93686 -7.73881 -7.54075 -7.34106 -7.1554 -6.96672 -6.77804 -6.58936 -6.39888 -6.22274 -6.04664 -5.87054 -5.69443 -5.51873 -5.35647 -5.19532 -5.03416 -4.873 -4.71283 -4.56333 -4.41362 -4.26392 -4.11421 -3.96447 -3.8241 -3.68244 -3.54078 -3.39912 -3.25671 -3.12448 -2.99296 -2.86143 -2.7299 -2.59911 -2.47955 -2.36193 -2.24431 -2.12668 -2.01003 -1.90322 -1.79432 -1.68542 -1.57653 -1.46495 -1.36222 -1.25639 -1.15057 -1.04474 -0.93597 -0.837451 -0.736816 -0.63618 -0.535539 -0.433115 -0.341428 -0.248198 -0.154968 -0.0617383 0.0327411 0.117281 0.203143 0.289005 0.374866 0.46191 0.539817 0.619029 0.698241 0.777453 0.85783 0.92978 1.00288 1.07598 1.14908 1.22325 1.28952 1.35689 1.42426 1.49163 1.56003 1.62104 1.68302 1.74499 1.80696 1.86986 1.92584 1.98273 2.03962 2.09652 2.1543 2.2056 2.25768 2.30975 2.36183 2.41465 2.4614 2.5089 2.55641 2.60391 2.65219 2.6947 2.73785 2.781 2.82415 2.86795 2.90628 2.94526 2.98423 3.0232 3.06286 3.09727 3.13222 3.16716 3.20211 3.23763 3.26814 3.29921 3.33029 3.36136 3.393 3.41998 3.44747 3.47495 3.50243 3.5305 3.5539 3.57713 3.60035 3.62358 3.64695 3.66568 3.6849 3.70412 3.72335 3.74452 3.76229 3.78096 3.79962 3.81828 3.8368 3.86422 3.90311 3.94056 3.97697 4.01182 4.03574 4.06112 4.08521 4.10773 4.13216 4.14492 4.15656 4.16913 4.18254 4.19755 4.21056 4.2324 4.2533 4.27321 4.30146 4.33176 4.37927 4.43325 4.48723 4.53278 4.55699 4.5793 4.60242 4.62554 4.64379 4.6567 4.66534 4.67399 4.68199 4.68383 4.67198 4.65772 4.64398 4.63024 4.61205 4.57406 4.53203 4.49 4.44635 4.39546 4.34431 4.3096 4.27808 4.24655 4.22047 4.04987 4.044 4.03684 4.02968 4.01643 4.03049 4.03286 4.03524 4.03988 4.03248 3.96912 3.88657 3.76734 3.64812 3.51712 3.28309 3.04333 2.80358 2.62686 2.45503 2.2628 2.0928 1.9228 1.71365 1.63897 1.81396 1.98455 2.15514 2.32573 2.3116 2.23593 2.15536 2.0748 1.99424 1.90479 1.60262 1.30576 1.00891 0.712052 0.509197 0.293026 0.0984146 -0.0961987 -0.290814 -0.379395 -0.206055 -0.0286346 0.148783 0.326198 0.439429 0.600416 0.76695 0.933484 1.10002 1.25662 1.35621 1.44287 1.52953 1.61619 1.69293 1.64129 1.57782 1.51435 1.45088 1.31411 1.17414 1.02479 0.875444 0.726099 0.597358 0.516101 0.43038 0.344659 0.258939 0.187069 0.173566 0.157392 0.141218 0.125044 0.112207 0.111937 0.10953 0.107122 0.104715 0.103175 0.100766 0.0966557 0.0925453 0.0884349 0.0850608 0.082973 0.0795669 0.0761608 0.0727549 0.0698452 0.068868 0.0668074 0.0647469 0.0626864 0.060946 0.0613542 0.0609075 0.0604609 0.0600144 0.0599259 0.054681 0.0485836 0.0425174 0.0364829 0.031438
-4.77472 -4.77627 -4.77783 -4.77939 -4.78095 -4.7825 -5.31175 -5.84098 -6.35656 -6.81124 -7.26591 -8.05181 -8.83783 -9.67072 -10.9478 -12.1855 -12.6525 -13.154 -13.6555 -14.157 -14.8186 -15.6503 -16.45 -17.2497 -18.0495 -18.8407 -19.8168 -20.7699 -21.723 -22.676 -23.6134 -24.7714 -25.9473 -27.1232 -28.2991 -29.4887 -30.9001 -32.3488 -33.7976 -35.2463 -36.7039 -38.3266 -40.0543 -41.7819 -43.51 -45.2897 -47.1251 -49.1387 -51.1525 -53.184 -55.6566 -56.5393 -57.4211 -58.4387 -59.3677 -60.2829 -61.2961 -62.2998 -63.2195 -64.0338 -64.8355 -65.6633 -66.4897 -67.2909 -68.0323 -68.7682 -69.4665 -70.1642 -70.8542 -71.4987 -72.1386 -72.6981 -73.2563 -73.7949 -74.3579 -74.9282 -75.0468 -75.2017 -75.3525 -75.5034 -75.7128 -75.8491 -75.997 -76.145 -76.3006 -76.4878 -76.5972 -76.7049 -76.8067 -76.9085 -77.0229 -77.0773 -77.1341 -77.191 -77.2508 -77.3175 -77.3276 -77.3399 -77.3517 -77.3635 -77.3793 -77.3448 -77.3123 -77.2798 -77.2474 -77.2167 -77.1349 -77.0547 -76.9758 -76.8969 -76.8193 -76.6943 -76.571 -76.4477 -76.3218 -76.1955 -76.0241 -75.8547 -75.6893 -75.524 -75.3591 -75.1525 -74.947 -74.7417 -74.5306 -74.3186 -74.0667 -73.8162 -73.5727 -73.3293 -73.086 -72.807 -72.5285 -72.2502 -71.9626 -71.6745 -71.6672 -71.6598 -71.6524 -71.6451 -71.6377 -71.3232 -71.0093 -70.7051 -70.4009 -70.0968 -69.7561 -69.4164 -69.0753 -68.7246 -68.3755 -67.9979 -67.6211 -67.2529 -66.8873 -66.5223 -66.1314 -65.7433 -65.3509 -64.9507 -64.5541 -64.1328 -63.7132 -63.2997 -62.8918 -62.4853 -62.0561 -61.6321 -61.2007 -60.7646 -60.3346 -59.8827 -59.4341 -58.9883 -58.551 -58.1164 -57.6609 -57.2135 -56.7556 -56.2963 -55.8461 -55.3748 -54.9086 -54.4424 -53.9868 -53.5359 -53.0644 -52.6026 -52.1314 -51.6602 -51.2013 -50.7213 -50.249 -49.7768 -49.3109 -48.8554 -48.3787 -47.912 -47.44 -46.9679 -46.5116 -46.0324 -45.5635 -45.0947 -44.6285 -44.178 -43.7042 -43.2414 -42.7767 -42.312 -41.8661 -41.3952 -40.9372 -40.4793 -40.0214 -39.5832 -39.1201 -38.6711 -38.2221 -37.773 -37.3403 -36.889 -36.4496 -36.0102 -35.5707 -35.1427 -34.704 -34.2748 -33.8459 -33.417 -32.9966 -32.5726 -32.1552 -31.7378 -31.32 -30.9059 -30.4957 -30.09 -29.6847 -29.2794 -28.875 -28.7825 -28.6907 -28.5989 -28.5072 -28.4156 -28.1141 -27.8127 -27.5112 -27.2089 -26.9067 -26.5236 -26.1425 -25.762 -25.3816 -25.0018 -24.6325 -24.2663 -23.9001 -23.5333 -23.1679 -22.8115 -22.4597 -22.1086 -21.7574 -21.4083 -21.0661 -20.7297 -20.3933 -20.0563 -19.7222 -19.3936 -19.0713 -18.7497 -18.4281 -18.1097 -17.7956 -17.4879 -17.1809 -16.8741 -16.5702 -16.2712 -15.9764 -15.6841 -15.393 -15.104 -14.8197 -14.5386 -14.2606 -13.9842 -13.7094 -13.4399 -13.172 -12.9082 -12.6471 -12.3869 -12.1314 -11.8766 -11.6267 -11.3798 -11.1332 -10.8919 -10.6506 -10.4142 -10.1816 -9.94893 -9.72078 -9.49264 -9.26917 -9.04929 -8.82941 -8.61457 -8.39973 -8.18901 -7.98232 -7.77562 -7.57304 -7.37046 -7.172 -6.97734 -6.78268 -6.59278 -6.40288 -6.21675 -6.03452 -5.85229 -5.67397 -5.49564 -5.32127 -5.15028 -4.9793 -4.81302 -4.6472 -4.48439 -4.32447 -4.16521 -4.00951 -3.85494 -3.70306 -3.5531 -3.40417 -3.2595 -3.11633 -2.97483 -2.83485 -2.69667 -2.5613 -2.42824 -2.29656 -2.16567 -2.03669 -1.9112 -1.78814 -1.66573 -1.54368 -1.42441 -1.30707 -1.19326 -1.07961 -0.965922 -0.854695 -0.746523 -0.641067 -0.535643 -0.430228 -0.327083 -0.226662 -0.12899 -0.0313137 0.0664006 0.162701 0.254923 0.345348 0.435693 0.526028 0.615204 0.700166 0.783555 0.866947 0.950456 1.03337 1.11113 1.18812 1.26494 1.34176 1.41832 1.46403 1.50937 1.55471 1.60005 1.64584 1.67134 1.69684 1.72233 1.74783 1.77279 1.83887 1.90447 1.96985 2.03523 2.09877 2.16029 2.22025 2.28019 2.34034 2.39715 2.45507 2.51013 2.56499 2.61985 2.67037 2.72425 2.77438 2.8245 2.87479 2.91911 2.97003 3.01583 3.06145 3.10707 3.14592 3.19307 3.23444 3.2758 3.31733 3.35042 3.39514 3.43266 3.47001 3.50667 3.5358 3.57615 3.61078 3.64441 3.67618 3.70126 3.73876 3.77129 3.80161 3.829 3.85138 3.88512 3.91467 3.94151 3.96517 3.98388 4.0153 4.04152 4.06548 4.08703 4.10342 4.13206 4.15569 4.17723 4.19625 4.20997 4.24059 4.26 4.27519 4.28738 4.2888 4.3248 4.35127 4.37928 4.41103 4.43316 4.4674 4.49284 4.51828 4.54414 4.56535 4.59558 4.61688 4.63685 4.65683 4.67305 4.68982 4.70185 4.71389 4.72592 4.73988 4.76686 4.79384 4.79774 4.76215 4.72655 4.81687 4.90718 4.9306 4.88791 4.8452 4.91694 4.98869 4.99464 4.93244 4.87025 4.9344 4.99855 4.98717 4.90028 4.81339 4.85023 4.88709 4.85646 4.75607 4.65567 4.72532 4.79495 4.7507 4.60057 4.45042 4.35935 4.28371 4.22709 4.17047 4.08985 4.22504 4.23911 4.253 4.26689 4.15136 4.20159 4.09236 3.98314 3.88029 3.68217 3.5237 3.33619 3.13897 2.94174 2.73701 2.29464 1.88834 1.5334 1.33276 1.31286 1.52858 1.69438 1.96583 2.37123 2.60921 2.73643 2.76531 2.75137 2.67638 2.52018 2.1812 1.89125 1.60395 1.31748 1.08891 0.727354 0.549301 -0.0132464 -0.49947 -0.607751 -0.462526 -0.28744 -0.112384 0.0304504 0.121344 0.195495 0.240706 0.399112 0.557477 0.664498 0.811164 0.889065 0.966928 1.05078 1.07709 1.05392 0.978035 0.90193 0.994979 1.05727 1.07361 0.923717 0.773359 0.623002 0.454504 0.454153 0.369897 0.283675 0.197452 0.105301 0.123613 0.108451 0.0919143 0.0753768 0.0535472 0.0718896 0.0703258 0.0676341 0.064942 0.0576545 0.0690115 0.0658045 0.0614784 0.057152 0.0494901 0.0569714 0.0543729 0.0508006 0.047228 0.0412506 0.0474981 0.0461965 0.0440051 0.0418134 0.0377803 0.0441658 0.0445099 0.043964 0.0434179 0.0415835 0.0481359 0.0441524 0.0379732 0.0317841 0.02481
-4.58215 -4.58365 -4.58515 -4.58665 -4.58815 -4.58966 -5.10459 -5.57817 -6.05179 -6.52358 -6.98272 -7.79197 -8.67469 -9.55742 -10.3825 -11.5237 -12.0285 -12.5466 -13.0648 -13.5746 -14.1725 -14.9855 -15.7667 -16.5207 -17.2747 -18.0212 -18.9935 -19.9422 -20.8911 -21.8439 -22.7847 -23.9807 -25.1712 -26.3897 -27.6082 -28.8188 -30.3113 -31.884 -33.4567 -34.9345 -36.4769 -38.2947 -40.0643 -42.0174 -43.969 -45.8508 -47.9123 -50.2095 -52.5141 -54.8058 -57.5937 -58.495 -59.4344 -60.3697 -61.2624 -62.4606 -63.5891 -64.6348 -65.6597 -66.6877 -67.773 -68.7696 -69.6825 -70.5917 -71.5145 -72.5151 -73.3682 -74.1611 -74.9463 -75.7342 -76.585 -77.2856 -77.9006 -78.516 -79.2741 -79.9807 -80.1296 -80.3173 -80.503 -80.6841 -80.918 -81.0829 -81.2706 -81.4529 -81.632 -81.8353 -81.9644 -82.0966 -82.2333 -82.3756 -82.5211 -82.6051 -82.6904 -82.773 -82.8526 -82.9353 -82.953 -82.9734 -82.9953 -83.0185 -83.0431 -83.0152 -82.9868 -82.9594 -82.9334 -82.9084 -82.8252 -82.7441 -82.6581 -82.5709 -82.4849 -82.3436 -82.2014 -82.0602 -81.9287 -81.7975 -81.6164 -81.4369 -81.2451 -81.0537 -80.8638 -80.6232 -80.3817 -80.1404 -79.9136 -79.6909 -79.4249 -79.1541 -78.8721 -78.5904 -78.3094 -78.1243 -77.9393 -77.7544 -77.5695 -77.3915 -77.2526 -77.1148 -76.9825 -76.8502 -76.7178 -76.3789 -76.0243 -75.6638 -75.3036 -74.9448 -74.5528 -74.1609 -73.7691 -73.3776 -73.0045 -72.6 -72.1788 -71.7578 -71.3369 -70.9198 -70.4759 -70.0319 -69.5882 -69.1446 -68.7078 -68.2453 -67.7802 -67.3162 -66.8522 -66.3901 -66.234 -66.078 -65.922 -65.766 -65.614 -65.2894 -64.9649 -64.6405 -64.3161 -63.9913 -63.4927 -62.9999 -62.5073 -62.0148 -61.5215 -61.0087 -60.5073 -60.006 -59.5048 -58.9961 -58.4653 -57.956 -57.4468 -56.9377 -56.4285 -55.9019 -55.3907 -54.8795 -54.3598 -53.8389 -53.3005 -52.7761 -52.2633 -51.7505 -51.238 -50.7096 -50.199 -49.6884 -49.1556 -48.6406 -48.1093 -47.5825 -47.0714 -46.5643 -46.0585 -45.5388 -45.0394 -44.5282 -44.0072 -43.5074 -42.9925 -42.4825 -41.9738 -41.4816 -40.9906 -40.4864 -39.9995 -39.4984 -38.9989 -38.5192 -38.0256 -37.5376 -37.0503 -36.5684 -36.0999 -35.6201 -35.1457 -34.6724 -34.1991 -33.7428 -33.2776 -32.8187 -32.3597 -31.9001 -31.4489 -31.0001 -30.5549 -30.1103 -29.6658 -29.2229 -29.1185 -29.0148 -28.9111 -28.8074 -28.704 -28.3773 -28.0506 -27.7239 -27.3958 -27.0695 -26.6489 -26.2342 -25.8204 -25.4066 -24.9964 -24.5877 -24.1912 -23.7946 -23.397 -23.007 -22.6115 -22.2292 -21.8501 -21.4732 -21.1006 -20.7235 -20.3529 -19.991 -19.6341 -19.2795 -18.9203 -18.5629 -18.2187 -17.8803 -17.5431 -17.2019 -16.8627 -16.5331 -16.2117 -15.8919 -15.5682 -15.245 -14.9306 -14.6276 -14.325 -14.0183 -13.7129 -13.4156 -13.1267 -12.8407 -12.551 -12.266 -11.9856 -11.7081 -11.4386 -11.1649 -10.8988 -10.6346 -10.3706 -10.1159 -9.86053 -9.61254 -9.36435 -9.11553 -8.87212 -8.63483 -8.40141 -8.16851 -7.93581 -7.70394 -7.65632 -7.6094 -7.56248 -7.51557 -7.46855 -7.29603 -7.1235 -6.95049 -6.77748 -6.60725 -6.39814 -6.19195 -5.98606 -5.78041 -5.58112 -5.38204 -5.18998 -4.99767 -4.80513 -4.62225 -4.43461 -4.25412 -4.07486 -3.89909 -3.73028 -3.55478 -3.38346 -3.21658 -3.05593 -2.89856 -2.73596 -2.57393 -2.41891 -2.27419 -2.12947 -1.97765 -1.82578 -1.6826 -1.54801 -1.41345 -1.27334 -1.13325 -1.00144 -0.878247 -0.755068 -0.624389 -0.493856 -0.373028 -0.258198 -0.143992 -0.0239922 0.0929435 0.204122 0.311484 0.415411 0.527259 0.632562 0.734681 0.835859 0.931937 1.03409 1.12775 1.22138 1.315 1.4034 1.4955 1.5812 1.6669 1.75265 1.83616 1.91745 1.99584 2.07411 2.15238 2.2304 2.2384 2.24608 2.25377 2.26145 2.26915 2.33395 2.39874 2.46354 2.52847 2.5906 2.65891 2.72511 2.79115 2.85719 2.91824 2.98172 3.04166 3.10159 3.16167 3.21308 3.27338 3.32803 3.38225 3.43465 3.48096 3.53466 3.58554 3.63414 3.67879 3.7189 3.76874 3.8139 3.85735 3.8982 3.93464 3.97847 4.01911 4.05772 4.09246 4.12344 4.16405 4.19863 4.23207 4.26488 4.29265 4.32786 4.3595 4.38811 4.41515 4.43803 4.47054 4.49629 4.52068 4.54608 4.56621 4.59393 4.61681 4.63766 4.65813 4.67416 4.69984 4.71806 4.73583 4.7538 4.76738 4.78854 4.80314 4.81762 4.83209 4.84307 4.86053 4.87181 4.88309 4.89436 4.90392 4.91575 4.92257 4.92938 4.93619 4.94209 4.96535 4.98948 5.00484 5.01407 5.0209 5.044 5.06202 5.0723 5.08158 5.08574 5.09606 5.09774 5.09942 5.10618 5.10909 5.1137 5.11264 5.10845 5.10426 5.09626 5.07011 5.00753 4.97592 4.96831 4.95237 4.98311 4.99415 5.00371 5.01169 5.01694 5.01919 5.01778 5.01636 5.01495 5.01353 5.0137 5.01386 5.01646 5.01911 4.99606 4.99921 4.98127 4.96095 4.93879 4.86928 4.8679 4.82661 4.78825 4.75439 4.64393 4.65527 4.62102 4.5753 4.51627 4.38321 4.24933 4.18534 4.11937 4.03654 3.87159 4.19627 4.27483 4.31789 4.32618 4.12142 4.29174 4.19662 4.07051 3.92326 3.52475 3.56696 3.20534 2.84375 2.48853 2.05921 1.7078 1.51985 1.33195 1.14409 1.02542 1.03979 1.04757 1.05535 1.06313 1.10155 1.47456 1.84775 2.22113 2.59471 2.594 3.22012 3.30543 3.3422 3.28271 2.59935 2.93306 2.61326 2.29377 1.97459 1.30342 0.502289 -0.206991 -0.451594 -0.695068 -0.825216 -0.678561 -0.524475 -0.406643 -0.288741 -0.197777 -0.138066 -0.152708 -0.167342 -0.120648 -0.0156401 0.115836 0.191692 0.269898 0.348647 0.37373 0.332294 0.426976 0.541276 0.657804 0.722472 0.735511 0.721895 0.586753 0.435595 0.267462 0.26555 0.25285 0.178327 0.0916497 -0.000593248 0.0168141 0.0274184 0.016407 -0.00044948 -0.0222899 -0.00459971 0.00776994 0.00883929 0.00590398 -0.00137573 0.00950848 0.0164898 0.0155469 0.0110336 0.0033534 0.0104951 0.0148218 0.0139956 0.0102759 0.0042621 0.0102566 0.0140998 0.0143052 0.0119971 0.00792335 0.0141243 0.018779 0.0205638 0.0199278 0.0180498 0.0244663 0.0296766 0.0292514 0.0230426 0.016076