# vtk DataFile Version 2.0
sampleSurface
ASCII
DATASET POLYDATA
POINTS 8354 float
1.75549e-13 0 0 1.75549e-13 0 0.01875 0.0625 0 0 -0.0625 0
0 0.0625 -5.11491e-18 0.01875 -0.0625 5.48644e-18 0.01875 1.59532e-13 -2.52877e-18 0.0806582
0.0625 0 0.0806582 -0.0625 -1.26218e-29 0.0806582 0.125 0 0 -0.125
-1.26218e-29 0 0.125 0 0.01875 -0.125 -1.26218e-29 0.01875 1.50652e-13 0
0.142566 0.125 5.1813e-18 0.0806582 -0.125 5.65082e-18 0.0806602 0.0625 1.64721e-18 0.142566
-0.0625 2.03723e-18 0.142566 0.1875 1.26218e-29 0 -0.1875 0 0 0.1875
-4.46051e-18 0.01875 -0.1875 7.89923e-20 0.01875 0.125 1.26218e-29 0.142566 -0.125 0
0.14257 0.1875 -1.26218e-29 0.0806582 -0.1875 0 0.0806602 1.48836e-13 0 0.204475
0.0625 0 0.204475 -0.0625 0 0.204475 0.1875 -4.98715e-18 0.142566 -0.1875
-1.7597e-18 0.14257 0.125 0 0.204475 -0.125 -6.71663e-18 0.204481 0.25 1.26218e-29
0 -0.25 -1.26218e-29 0 0.25 1.26218e-29 0.01875 -0.25 -1.26218e-29 0.01875
0.25 1.26218e-29 0.0806582 -0.25 4.00211e-18 0.0806627 1.54191e-13 0 0.266383 0.0625
4.23976e-18 0.266383 -0.0625 0 0.266383 0.1875 0 0.204475 -0.1875 0
0.204481 0.25 0 0.142566 -0.25 0 0.142575 0.125 0 0.266383
-0.125 1.26218e-29 0.266391 0.3125 0 0 -0.3125 -1.26218e-29 0 0.3125
3.86026e-18 0.01875 -0.3125 4.27294e-18 0.01875 0.3125 0 0.0806582 -0.3125 -1.26218e-29
0.080663 0.25 1.03525e-18 0.204475 -0.25 1.26218e-29 0.204488 0.1875 0 0.266383
-0.1875 1.37701e-18 0.266391 1.66949e-13 4.90093e-18 0.328291 -0.0625 -1.26218e-29 0.328291 0.0625
0 0.328291 0.3125 0 0.142566 -0.3125 4.27624e-18 0.142576 0.125 6.22153e-19
0.328291 -0.125 -2.07532e-18 0.328301 0.25 0 0.266383 -0.25 0 0.266401
0.3125 0 0.204475 -0.3125 1.26218e-29 0.204489 0.375 0 0 -0.375
-2.52435e-29 0 0.375 0 0.01875 -0.375 -2.52435e-29 0.01875 0.1875 0
0.328291 -0.1875 0 0.328301 0.375 6.81186e-18 0.0806582 -0.375 6.54521e-18 0.0806641
1.87544e-13 1.26218e-29 0.390199 0.0625 2.51913e-18 0.390199 -0.0625 9.79971e-20 0.390199 0.375
0 0.142566 -0.375 0 0.142578 0.125 1.26218e-29 0.390199 -0.125 0
0.390211 0.3125 3.38175e-18 0.266383 -0.3125 -1.26218e-29 0.266402 0.25 0 0.328291
-0.25 2.36409e-18 0.328314 0.375 -2.14407e-18 0.204475 -0.375 1.89573e-18 0.204492 0.1875
0 0.390199 -0.1875 -3.51018e-18 0.390211 -0.4375 -2.52435e-29 0 0.4375 4.33579e-18
0 -0.4375 5.39157e-18 0.01875 0.4375 4.33579e-18 0.01875 0.4375 0 0.0806588
-0.4375 0 0.0806641 2.16727e-13 0 0.452107 0.3125 0 0.328291 -0.3125
0 0.328315 0.0625 1.26218e-29 0.452107 -0.0625 0 0.452107 0.375 1.26218e-29
0.266383 -0.375 0 0.266406 0.4375 0 0.142568 -0.4375 -2.52658e-18 0.142578
0.25 0 0.390199 -0.25 0 0.390226 0.125 -3.39343e-18 0.452107 -0.125
-8.79568e-19 0.452121 0.4375 1.26218e-29 0.204477 -0.4375 -2.52435e-29 0.204492 0.1875 0
0.452107 -0.1875 0 0.452121 0.375 0 0.328291 -0.375 2.48192e-18 0.32832
0.3125 -4.01722e-18 0.390199 -0.3125 -2.95176e-18 0.390228 -0.5 0 0 0.5
-1.26218e-29 0 -0.5 0 0.01875 0.5 -1.26218e-29 0.01875 0.5 1.26218e-29
0.0806588 -0.5 0 0.0806641 0.4375 0 0.266385 -0.4375 -4.42667e-18 0.266406
2.55734e-13 0 0.514016 0.25 2.76043e-18 0.452107 -0.25 0 0.452139 0.0625
4.63172e-18 0.514016 -0.0625 0 0.514016 0.5 0 0.142568 -0.5 5.04871e-29
0.142578 0.125 0 0.514016 -0.125 0 0.514031 0.5 -4.53491e-18 0.204477
-0.5 -3.71825e-18 0.204492 0.375 -1.26218e-29 0.390199 -0.375 0 0.390234 0.4375
0 0.328294 -0.4375 -2.52435e-29 0.32832 0.1875 -2.52435e-29 0.514016 -0.1875 3.73614e-18
0.514031 0.3125 1.26218e-29 0.452107 -0.3125 0 0.452142 -0.5625 1.00974e-28 0
0.5625 1.26218e-29 0 -0.5625 -3.62689e-18 0.01875 0.5625 -4.16584e-18 0.01875 0.5
1.26218e-29 0.266385 -0.5 0 0.266406 0.5625 1.26218e-29 0.0806588 -0.5625 1.00974e-28
0.0806641 0.25 0 0.514016 -0.25 2.52435e-29 0.514052 3.06549e-13 0 0.575924
-0.0625 0 0.575924 0.0625 0 0.575924 0.5625 -3.21432e-18 0.142568 -0.5625
-4.40015e-18 0.142578 0.4375 3.7915e-18 0.390203 -0.4375 1.7368e-18 0.390234 0.375 7.24633e-19
0.452107 -0.375 -1.3287e-18 0.452148 0.125 -2.45194e-18 0.575924 -0.125 -6.0933e-18 0.575942
0.5 0 0.328294 -0.5 0 0.32832 0.5625 0 0.204477 -0.5625
0 0.204492 0.3125 6.76102e-18 0.514016 -0.3125 0 0.514055 0.1875 0
0.575924 -0.1875 0 0.575942 0.5625 -1.3001e-18 0.266385 -0.5625 0 0.266406
-0.625 0 0 0.625 1.26218e-29 0 -0.625 0 0.01875 0.625
1.26218e-29 0.01875 0.25 0 0.575924 -0.25 -2.90766e-18 0.575945 0.4375 -1.26218e-29
0.452112 -0.4375 0 0.452148 0.625 -4.21414e-18 0.0806588 -0.625 4.80757e-18 0.0806641
0.5 -1.26218e-29 0.390203 -0.5 0 0.390234 0.375 -1.26218e-29 0.514016 -0.375
2.52435e-29 0.514063 3.72107e-13 0 0.637832 -0.0625 4.88286e-18 0.637832 0.0625 6.77044e-18
0.637832 0.625 -6.31089e-30 0.142568 -0.625 0 0.142578 0.125 0 0.637832
-0.125 0 0.637852 0.5625 0 0.328294 -0.5625 0 0.32832 0.3125
0 0.575924 -0.3125 -2.52435e-29 0.575968 0.625 3.12974e-18 0.204477 -0.625 4.59612e-18
0.204492 0.1875 2.19058e-18 0.637832 -0.1875 -6.60238e-18 0.637852 0.5 4.92156e-18 0.452112
-0.5 -1.68639e-18 0.452148 0.4375 -1.26218e-29 0.514021 -0.4375 -5.65702e-18 0.514063 0.625
0 0.266385 -0.625 -2.01948e-28 0.266406 0.5625 9.44275e-19 0.390203 -0.5625 -6.46756e-18
0.390234 0.25 0 0.637832 -0.25 0 0.637856 0.375 -6.73569e-18 0.575924
-0.375 1.11066e-18 0.575977 0.6875 0 0 -0.6875 0 0 -0.6875
1.40717e-18 0.01875 0.6875 -3.97897e-18 0.01875 0.6875 0 0.0806588 -0.6875 0
0.0806641 4.56845e-13 3.87603e-18 0.69974 0.6875 1.27263e-18 0.142568 -0.6875 0 0.142578
-0.0625 2.52435e-29 0.69974 0.0625 2.52435e-29 0.69974 0.625 6.592e-18 0.328294 -0.625
0 0.32832 0.3125 -1.93524e-18 0.637832 -0.3125 4.04014e-18 0.637881 0.125 -4.70106e-19
0.69974 -0.125 3.12226e-18 0.699762 0.5 0 0.514021 -0.5 0 0.514063
0.6875 6.31089e-30 0.204477 -0.6875 -4.03897e-28 0.204492 0.5625 0 0.452112 -0.5625
-1.00974e-28 0.452148 0.4375 0 0.57593 -0.4375 0 0.575977 0.1875 -2.52435e-29
0.69974 -0.1875 2.52435e-29 0.699762 0.625 1.26218e-29 0.390203 -0.625 2.01948e-28 0.390234
0.6875 0 0.266385 -0.6875 -6.75978e-18 0.266406 0.375 0 0.637832 -0.375
0 0.637891 0.25 4.98213e-18 0.69974 -0.25 0 0.699767 0.75 1.26218e-29
0 -0.75 8.07794e-28 0 0.75 1.26218e-29 0.01875 -0.75 8.07794e-28 0.01875
0.75 -2.83834e-18 0.080661 -0.75 0 0.0806644 5.67701e-13 0 0.761648 0.6875
0 0.328294 -0.6875 0 0.32832 0.5625 -5.39072e-18 0.514021 -0.5625 0
0.514063 0.5 0 0.57593 -0.5 0 0.575977 0.75 0 0.142572
-0.75 8.07794e-28 0.142579 -0.0625 4.99955e-18 0.761648 0.0625 -5.04871e-29 0.761648 0.3125
2.52435e-29 0.69974 -0.3125 0 0.699795 0.625 -1.02629e-18 0.452112 -0.625 -1.62107e-19
0.452148 0.125 0 0.761648 -0.125 0 0.761672 0.4375 0 0.637838
-0.4375 4.29373e-19 0.637891 0.75 -6.31089e-30 0.204483 -0.75 -1.94537e-18 0.204493 0.1875
5.59539e-18 0.761648 -0.1875 0 0.761672 0.6875 -3.12847e-21 0.390203 -0.6875 1.7397e-18
0.390234 0.375 -7.78862e-19 0.69974 -0.375 9.53408e-20 0.699805 0.75 6.31089e-30 0.266394
-0.75 8.07794e-28 0.266408 0.25 0 0.761648 -0.25 0 0.761678 0.5625
0 0.57593 -0.5625 0 0.575977 0.625 1.26218e-29 0.514021 -0.625 0
0.514063 0.5 2.52435e-29 0.637838 -0.5 1.00974e-28 0.637891 -0.8125 0 0
0.8125 6.31089e-30 0 -0.8125 9.96706e-19 0.01875 0.8125 -5.64787e-18 0.01875 0.8125
0 0.0806623 -0.8125 -1.61559e-27 0.0806652 0.75 6.84495e-18 0.328305 -0.75 -8.07794e-28
0.328322 0.6875 -1.26218e-29 0.452112 -0.6875 0 0.452148 0.3125 0 0.761648
-0.3125 1.35227e-18 0.761708 7.16809e-13 0 0.823557 0.8125 2.44843e-18 0.142575 -0.8125
-5.09802e-18 0.142581 0.4375 0 0.699747 -0.4375 -5.04871e-29 0.699805 -0.0625 0
0.823557 0.0625 5.04871e-29 0.823557 0.125 3.3729e-18 0.823557 -0.125 -3.3446e-19 0.823582
0.8125 -6.31089e-30 0.204487 -0.8125 -1.61559e-27 0.204496 0.1875 0 0.823557 -0.1875
0 0.823582 0.75 0 0.390216 -0.75 8.07794e-28 0.390236 0.375 0
0.761648 -0.375 0 0.761719 0.625 2.89935e-18 0.57593 -0.625 2.69604e-18 0.575977
0.5625 3.66498e-18 0.637838 -0.5625 -1.66883e-18 0.637891 0.8125 -3.92683e-18 0.266399 -0.8125
0 0.266411 0.6875 1.26218e-29 0.514021 -0.6875 6.04692e-18 0.514063 0.5 3.95879e-18
0.699747 -0.5 6.89573e-18 0.699805 0.25 0 0.823557 -0.25 -5.33342e-18 0.823589
-0.875 0 0 0.875 6.31089e-30 0 -0.875 0 0.01875 0.875
6.31089e-30 0.01875 0.75 0 0.452127 -0.75 2.01392e-18 0.452151 0.8125 0
0.328312 -0.8125 -1.61559e-27 0.328327 0.4375 -1.09521e-18 0.761656 -0.4375 0 0.761719
0.875 -1.5406e-18 0.0806623 -0.875 -3.26522e-18 0.0806667 0.3125 5.04871e-29 0.823557 -0.3125
0 0.823622 9.26509e-13 5.04871e-29 0.885465 0.875 0 0.142575 -0.875 -3.23117e-27
0.142584 -0.0625 4.92932e-18 0.885465 0.0625 -6.03858e-18 0.885465 0.625 0 0.637838
-0.625 2.01948e-28 0.637891 0.125 -5.04871e-29 0.885465 -0.125 0 0.885492 0.6875
0 0.57593 -0.6875 0 0.575977 0.5625 -2.52435e-29 0.699747 -0.5625 0
0.699805 0.875 -6.36353e-18 0.204487 -0.875 0 0.204501 0.8125 2.30477e-18 0.390224
-0.8125 0 0.390243 0.375 3.82565e-19 0.823557 -0.375 1.65848e-18 0.823633 0.1875
-3.72016e-18 0.885465 -0.1875 7.34014e-19 0.885492 0.75 1.26218e-29 0.514038 -0.75 8.07794e-28
0.514066 0.5 0 0.761656 -0.5 0 0.761719 0.875 6.31089e-30 0.266399
-0.875 3.23117e-27 0.266418 0.25 -5.04871e-29 0.885465 -0.25 -5.04871e-29 0.8855 0.8125
0 0.452136 -0.8125 0 0.452159 0.4375 -5.04871e-29 0.823565 -0.4375 0
0.823633 0.875 -5.88015e-18 0.328312 -0.875 -6.83729e-18 0.328335 -0.9375 0 0
0.9375 -6.31089e-30 0 -0.9375 2.78604e-18 0.01875 0.9375 6.36076e-18 0.01875 0.6875
9.03089e-19 0.637838 -0.6875 6.40813e-18 0.637891 0.625 -2.58188e-18 0.699747 -0.625 2.61625e-18
0.699805 0.3125 6.49955e-19 0.885465 -0.3125 -4.36459e-18 0.885535 0.9375 -6.31089e-30 0.0806623
-0.9375 0 0.0806687 0.75 3.51659e-18 0.575949 -0.75 8.07794e-28 0.57598 0.5625
-2.52435e-29 0.761656 -0.5625 -1.43321e-18 0.761719 1.24031e-12 6.80881e-18 0.947373 0.9375 -6.07622e-18
0.142575 -0.9375 6.30495e-18 0.142588 -0.0625 0 0.947373 0.0625 0 0.947373
0.125 4.7731e-18 0.947373 -0.125 6.54495e-19 0.947403 0.875 0 0.390224 -0.875
0 0.390253 0.9375 0 0.204487 -0.9375 6.46235e-27 0.204507 0.8125 4.92265e-18
0.514049 -0.8125 0 0.514075 0.375 5.04871e-29 0.885465 -0.375 0 0.885547
0.5 0 0.823565 -0.5 0 0.823633 0.1875 0 0.947373 -0.1875
[...]
POINT_DATA 8354
FIELD attributes 1
U 3 8354 float
30 0 0 30.006 -1.65249e-06 -7.74476e-05 30 0 0 30 0
0 30.0061 -1.68191e-06 -7.28119e-05 30.0059 -1.62292e-06 -8.18942e-05 30.0063 -1.73588e-06 -0.000199601
30.0064 -1.76583e-06 -0.000186856 30.0062 -1.70572e-06 -0.000211617 30 0 0 30
0 0 30.0062 -1.71118e-06 -6.80054e-05 30.0058 -1.59321e-06 -8.61146e-05 30.0064 -1.76831e-06
-0.000354882 30.0065 -1.79577e-06 -0.000173487 30.0061 -1.67539e-06 -0.000222881 30.0065 -1.79846e-06 -0.000332691
30.0063 -1.73795e-06 -0.000375881 30 0 0 30 0 0 30.0062
-1.74019e-06 -6.30487e-05 30.0057 -1.56357e-06 -9.00848e-05 30.0065 -1.82861e-06 -0.00030948 30.0061 -1.70738e-06
-0.000395607 30.0065 -1.8256e-06 -0.000159724 30.006 -1.64517e-06 -0.000233367 30.0064 -1.78715e-06 -0.000521487
30.0065 -1.81741e-06 -0.000489818 30.0063 -1.7567e-06 -0.000551515 30.0066 -1.85871e-06 -0.000285523 30.006
-1.67688e-06 -0.000413975 30.0066 -1.84764e-06 -0.000456736 30.0062 -1.72605e-06 -0.000579774 30 0
0 30 0 0 30.0063 -1.76912e-06 -5.80095e-05 30.0055 -1.53368e-06 -9.37917e-05
30.0066 -1.85532e-06 -0.000145736 30.0058 -1.61475e-06 -0.000243029 30.0065 -1.79258e-06 -0.000687101 30.0066
-1.82317e-06 -0.000645702 30.0063 -1.76181e-06 -0.000726359 30.0067 -1.87785e-06 -0.000422436 30.0061 -1.69552e-06
-0.000606095 30.0067 -1.8887e-06 -0.000261011 30.0059 -1.64624e-06 -0.000430912 30.0066 -1.8537e-06 -0.000602409
30.0062 -1.73086e-06 -0.000763303 30 0 0 30 0 0 30.0064
-1.79807e-06 -5.29022e-05 30.0054 -1.50359e-06 -9.72229e-05 30.0067 -1.8849e-06 -0.000131502 30.0057 -1.58414e-06
-0.000251847 30.0068 -1.90789e-06 -0.000387168 30.006 -1.66481e-06 -0.000630382 30.0067 -1.88421e-06 -0.000557466
30.0061 -1.70002e-06 -0.000797709 30.0065 -1.7941e-06 -0.000862994 30.0064 -1.76297e-06 -0.000911765 30.0066
-1.82504e-06 -0.000811551 30.0068 -1.9185e-06 -0.000235985 30.0058 -1.61544e-06 -0.000446359 30.0067 -1.85593e-06
-0.000757717 30.0062 -1.73165e-06 -0.000957633 30.0068 -1.91454e-06 -0.000511167 30.006 -1.66903e-06 -0.000829459
30.0068 -1.93777e-06 -0.000351074 30.0058 -1.63392e-06 -0.000652526 30 0 0 30
0 0 30.0064 -1.82697e-06 -4.7689e-05 30.0053 -1.47366e-06 -0.000100367 30.0067 -1.88678e-06
-0.000701817 30.0061 -1.70041e-06 -0.00100034 30.0067 -1.91446e-06 -0.000116923 30.0056 -1.55368e-06 -0.000259797
30.0065 -1.80104e-06 -0.00103946 30.0066 -1.83238e-06 -0.000977605 30.0064 -1.76953e-06 -0.00109808 30.0068
-1.94822e-06 -0.000210469 30.0056 -1.58475e-06 -0.000460264 30.0067 -1.86366e-06 -0.000912858 30.0063 -1.73782e-06
-0.00115319 30.0069 -1.9447e-06 -0.000463758 30.0058 -1.63784e-06 -0.000858408 30.0068 -1.91747e-06 -0.000644175
30.006 -1.66906e-06 -0.00103972 30.0069 -1.96756e-06 -0.000314402 30.0057 -1.60314e-06 -0.000672446 30.0068
-1.8949e-06 -0.000845598 30.0061 -1.70615e-06 -0.00120448 30 0 0 30 0
0 30.0052 -1.44373e-06 -0.000103203 30.0064 -1.85565e-06 -4.24039e-05 30.0068 -1.94376e-06 -0.000102165
30.0054 -1.52331e-06 -0.000266864 30.0066 -1.81364e-06 -0.00122812 30.0069 -1.94796e-06 -0.000585168 30.0058
-1.63754e-06 -0.00107563 30.0067 -1.84554e-06 -0.00115527 30.0065 -1.78156e-06 -0.00129713 30.0069 -1.97478e-06
-0.000415558 30.0057 -1.60675e-06 -0.000884465 30.0069 -1.97771e-06 -0.000184685 30.0055 -1.55418e-06 -0.00047258
30.0069 -1.92599e-06 -0.000776225 30.006 -1.67439e-06 -0.00125175 30.0068 -1.87738e-06 -0.00107897 30.0064
-1.74927e-06 -0.00136196 30.0069 -1.99723e-06 -0.000277273 30.0055 -1.57248e-06 -0.000690043 30.0069 -1.90917e-06
-0.000999673 30.0062 -1.71702e-06 -0.00142224 30.0069 -1.97838e-06 -0.000525136 30.0057 -1.60609e-06 -0.00110794
30.0069 -1.95688e-06 -0.00070518 30.0059 -1.64249e-06 -0.00129482 30 0 0 30
0 0 30.005 -1.41375e-06 -0.000105708 30.0065 -1.88415e-06 -3.70115e-05 30.0068 -1.97287e-06
-8.72162e-05 30.0053 -1.49275e-06 -0.000273019 30.007 -2.00471e-06 -0.00036681 30.0056 -1.57578e-06 -0.000907528
30.0068 -1.83192e-06 -0.00141476 30.007 -1.94079e-06 -0.000917861 30.0061 -1.68469e-06 -0.00147775 30.0069
-1.86433e-06 -0.00133045 30.0066 -1.79934e-06 -0.00149458 30.0069 -2.00685e-06 -0.000158634 30.0053 -1.52317e-06
-0.000483253 30.007 -1.89672e-06 -0.0012421 30.0065 -1.76654e-06 -0.00156954 30.007 -2.02644e-06 -0.000239978
30.0054 -1.54163e-06 -0.000705237 30.007 -1.98767e-06 -0.000632906 30.0057 -1.61065e-06 -0.00133353 30.007
-2.0086e-06 -0.00046452 30.0055 -1.57477e-06 -0.00113657 30.0071 -1.92904e-06 -0.00115026 30.0064 -1.73378e-06
-0.0016392 30.0071 -1.9722e-06 -0.000834052 30.006 -1.65219e-06 -0.00152826 30 0 0
30 0 0 30.0049 -1.38318e-06 -0.000107884 30.0065 -1.9125e-06 -3.15949e-05 30.007
-2.03429e-06 -0.000317991 30.0054 -1.5449e-06 -0.000927549 30.0068 -2.00186e-06 -7.27059e-05 30.0051 -1.46163e-06
-0.000278307 30.0071 -1.96118e-06 -0.00105547 30.0062 -1.70094e-06 -0.00170332 30.0069 -1.85009e-06 -0.00160405
30.0067 -1.81703e-06 -0.00169482 30.007 -1.88301e-06 -0.00150804 30.0069 -2.03589e-06 -0.000133108 30.0052
-1.49173e-06 -0.000492261 30.007 -2.01827e-06 -0.000559892 30.0056 -1.57895e-06 -0.00136776 30.0071 -2.00352e-06
-0.000748781 30.0058 -1.61976e-06 -0.00157357 30.0071 -1.91595e-06 -0.00140734 30.0066 -1.78373e-06 -0.00177994
30.007 -2.03853e-06 -0.000403689 30.0054 -1.54331e-06 -0.0011615 30.007 -2.05544e-06 -0.000203102 30.0052
-1.51026e-06 -0.000717916 30.0072 -1.99309e-06 -0.000958331 30.0061 -1.66793e-06 -0.00176163 30.0072 -1.94882e-06
-0.00130255 30.0065 -1.75045e-06 -0.00185891 30.007 -2.0635e-06 -0.000269673 30.0053 -1.51342e-06 -0.0009445
30 0 0 30 0 0 30.0047 -1.3526e-06 -0.000109754 30.0065
-1.94058e-06 -2.64067e-05 30.0073 -1.98148e-06 -0.00119432 30.0063 -1.71711e-06 -0.00193139 30.0072 -2.03466e-06
-0.000662617 30.0056 -1.58746e-06 -0.00161353 30.0068 -2.03057e-06 -5.89363e-05 30.005 -1.4307e-06 -0.000282889
30.0071 -2.04855e-06 -0.000486607 30.0054 -1.54692e-06 -0.00139747 30.0073 -2.02491e-06 -0.000859485 30.0059
-1.63498e-06 -0.00181395 30.0069 -1.86579e-06 -0.00179643 30.0068 -1.83199e-06 -0.00189879 30.0071 -1.89946e-06
-0.00168804 30.0069 -2.06472e-06 -0.000108518 30.005 -1.4607e-06 -0.000499662 30.0072 -1.93314e-06 -0.00157425
30.0067 -1.79793e-06 -0.00199466 30.007 -2.06821e-06 -0.000343139 30.0052 -1.51132e-06 -0.0011828 30.0073
-2.01391e-06 -0.00108336 30.0062 -1.68362e-06 -0.00199721 30.007 -2.08459e-06 -0.000166599 30.0051 -1.47911e-06
-0.000727964 30.0073 -1.96672e-06 -0.00145575 30.0065 -1.76388e-06 -0.00208345 30.0072 -2.06546e-06 -0.000576112
30.0055 -1.55505e-06 -0.00164804 30.0073 -2.05653e-06 -0.000759583 30.0058 -1.60217e-06 -0.00186014 30.007
-2.09284e-06 -0.000221479 30.0051 -1.48192e-06 -0.000958401 30.0071 -2.07859e-06 -0.000413567 30.0052 -1.5144e-06
-0.00142261 30.0074 -2.00008e-06 -0.00133329 30.0064 -1.72976e-06 -0.00216481 30.0074 -2.04623e-06 -0.000970383
30.006 -1.65018e-06 -0.00205608 30 0 0 30 0 0 30.0046
-1.32265e-06 -0.000111246 30.0065 -1.96845e-06 -2.14502e-05 30.0068 -2.05939e-06 -4.55132e-05 30.0048 -1.40041e-06
-0.000286901 30.0071 -1.88368e-06 -0.0020035 30.0069 -2.09346e-06 -8.43772e-05 30.0049 -1.43019e-06 -0.000505503
30.0069 -1.84901e-06 -0.00211843 30.0072 -1.91818e-06 -0.00188168 30.0071 -2.09782e-06 -0.000283 30.0051
-1.4795e-06 -0.00120064 30.0074 -2.0332e-06 -0.00120767 30.0062 -1.69551e-06 -0.00223853 30.0073 -1.95269e-06
-0.00175368 30.0068 -1.8141e-06 -0.00222594 30.0074 -2.08783e-06 -0.00065927 30.0056 -1.56942e-06 -0.00190015
30.007 -2.11342e-06 -0.00013075 30.0049 -1.44858e-06 -0.000735171 30.0072 -2.09602e-06 -0.000489836 30.0053
-1.52213e-06 -0.00167699 30.0074 -2.07833e-06 -0.000856159 30.0058 -1.61688e-06 -0.00210788 30.0074 -1.98709e-06
-0.00162029 30.0066 -1.7792e-06 -0.00232536 30.0071 -2.10855e-06 -0.000341104 30.0051 -1.4822e-06 -0.00144321
30.007 -2.12206e-06 -0.000173981 30.0049 -1.45115e-06 -0.000969232 30.0075 -2.06619e-06 -0.00107972 30.006
-1.66128e-06 -0.00230427 30.0075 -2.02123e-06 -0.00148236 30.0064 -1.74422e-06 -0.00241631 30 0
0 30 0 0 30.0065 -1.99635e-06 -1.66944e-05 30.0044 -1.29241e-06 -0.000112096
30.0068 -2.08815e-06 -3.2204e-05 30.0047 -1.37013e-06 -0.000290169 30.0072 -1.90467e-06 -0.00221939 30.0071
-2.1273e-06 -0.000223753 30.0049 -1.4483e-06 -0.00121524 30.0074 -2.11888e-06 -0.000559212 30.0054 -1.53619e-06
-0.00193397 30.0075 -2.1101e-06 -0.000741435 30.0057 -1.58354e-06 -0.00215261 30.0069 -2.12209e-06 -6.02313e-05
30.0047 -1.39994e-06 -0.000509591 30.0071 -1.86914e-06 -0.00234759 30.0073 -1.94005e-06 -0.00208335 30.0076
-2.05512e-06 -0.00134081 30.0063 -1.70909e-06 -0.00249853 30.0072 -2.12647e-06 -0.000404324 30.0051 -1.48934e-06
-0.00170021 30.0075 -1.97541e-06 -0.00194027 30.0069 -1.83337e-06 -0.00246733 30.0076 -2.09895e-06 -0.000950337
30.0058 -1.62718e-06 -0.00236188 30.007 -2.14198e-06 -9.55535e-05 30.0048 -1.41808e-06 -0.000739127 30.0076
-2.01065e-06 -0.00179104 30.0067 -1.79762e-06 -0.0025779 30.0071 -2.13839e-06 -0.000269738 30.0049 -1.45056e-06
-0.00145923 30.0076 -2.08886e-06 -0.0011966 30.0061 -1.67396e-06 -0.00257167 30.007 -2.15097e-06 -0.00012773
30.0048 -1.42016e-06 -0.000976884 30.0077 -2.04563e-06 -0.00163663 30.0066 -1.76181e-06 -0.00267885 30.0075
-2.14163e-06 -0.000626985 30.0055 -1.54972e-06 -0.00219039 30.0074 -2.14981e-06 -0.000460057 30.0052 -1.50295e-06
-0.00196165 30.0076 -2.13136e-06 -0.000820361 30.0057 -1.59288e-06 -0.00241134 30 0 0
30 0 0 30.0043 -1.26162e-06 -0.000112154 30.0065 -2.02467e-06 -1.20997e-05 30.0068
-2.1166e-06 -1.8836e-05 30.0045 -1.33996e-06 -0.000292602 30.007 -2.1565e-06 -0.000165952 30.0048 -1.41709e-06
-0.0012269 30.0072 -2.1568e-06 -0.000320087 30.005 -1.45719e-06 -0.00171743 30.0077 -2.08032e-06 -0.00147808
30.0064 -1.72582e-06 -0.00276993 30.0074 -1.92684e-06 -0.00245147 30.0069 -2.15042e-06 -3.60383e-05 30.0046
-1.36993e-06 -0.000511449 30.0077 -2.12236e-06 -0.00105075 30.0059 -1.63896e-06 -0.00263553 30.0072 -1.89024e-06
-0.0025938 30.0075 -1.96329e-06 -0.00230019 30.0076 -1.99971e-06 -0.00214088 30.007 -1.8534e-06 -0.00272652
30.007 -2.17037e-06 -6.09573e-05 30.0046 -1.38779e-06 -0.000738958 30.0078 -2.03602e-06 -0.00197455 30.0069
-1.81656e-06 -0.0028488 30.0071 -2.16798e-06 -0.000199994 30.0047 -1.41914e-06 -0.00147067 30.0078 -2.11487e-06
-0.0013165 30.0062 -1.68984e-06 -0.00285075 30.0075 -2.17302e-06 -0.000513563 30.0053 -1.516e-06 -0.00222145
30.0076 -2.16351e-06 -0.000690698 30.0055 -1.55815e-06 -0.0024527 30.007 -2.17967e-06 -8.25457e-05 30.0046
-1.38932e-06 -0.000981477 30.0074 -2.18062e-06 -0.000362402 30.0051 -1.4704e-06 -0.00198324 30.0077 -2.15551e-06
-0.000904223 30.0057 -1.60392e-06 -0.00269006 30.0079 -2.07204e-06 -0.00180232 30.0067 -1.77965e-06 -0.00296014
30 0 0 30 0 0 30.0041 -1.23062e-06 -0.000112434 30.0064
-2.05301e-06 -7.52518e-06 30.0072 -2.1869e-06 -0.000237697 30.0048 -1.42504e-06 -0.00172826 30.007 -2.18548e-06
-0.00010956 30.0046 -1.38607e-06 -0.00123669 30.0079 -2.14919e-06 -0.00115305 30.006 -1.654e-06 -0.00292113
30.0068 -2.14472e-06 -5.77553e-06 30.0044 -1.31045e-06 -0.000295743 30.0079 -2.10778e-06 -0.00162536 30.0065
-1.74259e-06 -0.00306028 30.0075 -1.9533e-06 -0.00269932 30.0069 -2.17852e-06 -1.26633e-05 30.0044 -1.34038e-06
-0.000510632 30.0074 -1.91528e-06 -0.0028568 30.0077 -1.99118e-06 -0.00253168 30.0076 -2.1955e-06 -0.000562212
30.0053 -1.52364e-06 -0.00248605 30.0078 -2.02902e-06 -0.00235491 30.0072 -1.87699e-06 -0.00300337 30.0075
-2.20429e-06 -0.000401882 30.0051 -1.48294e-06 -0.00224619 30.0077 -2.18837e-06 -0.000758068 30.0055 -1.56845e-06
-0.00273525 30.0069 -2.19857e-06 -2.74563e-05 30.0045 -1.35784e-06 -0.000732651 30.0071 -2.19731e-06 -0.00013205
30.0046 -1.38794e-06 -0.0014776 30.008 -2.14336e-06 -0.00144495 30.0063 -1.70554e-06 -0.00314879 30.008
-2.06671e-06 -0.00217015 30.007 -1.83867e-06 -0.00313811 30.0074 -2.21118e-06 -0.000266894 30.0049 -1.43768e-06
-0.00199887 30.0079 -2.18312e-06 -0.000988834 30.0058 -1.61829e-06 -0.00298106 30.007 -2.20818e-06 -3.87492e-05
30.0045 -1.35872e-06 -0.000984129 30.0081 -2.10411e-06 -0.00197867 30.0068 -1.80027e-06 -0.0032605 30.0072
-2.21669e-06 -0.000157542 30.0046 -1.39313e-06 -0.00173174 30.0081 -2.17867e-06 -0.0012624 30.0061 -1.66864e-06
-0.0032255 30.007 -2.21428e-06 -5.49288e-05 30.0044 -1.35538e-06 -0.00124805 30 0 0
30 0 0 30.004 -1.20179e-06 -0.000116654 30.0064 -2.08082e-06 -3.07254e-06 30.0076
-2.22734e-06 -0.000435744 30.0051 -1.48974e-06 -0.00251162 30.0078 -2.22106e-06 -0.000613279 30.0053 -1.53315e-06
-0.00277106 30.0082 -2.14121e-06 -0.00178181 30.0066 -1.76173e-06 -0.00337022 30.0068 -2.17272e-06 6.74238e-06
30.0042 -1.28223e-06 -0.000303757 30.0075 -2.2353e-06 -0.000292662 30.0049 -1.44993e-06 -0.00226535 30.0079
-2.21673e-06 -0.000825055 30.0056 -1.58223e-06 -0.00303062 30.0078 -1.99286e-06 -0.00296937 30.0069 -2.20666e-06
9.5848e-06 30.0043 -1.31162e-06 -0.000507463 30.0076 -1.95325e-06 -0.00314356 30.008 -2.03231e-06 -0.00278367
30.0081 -2.07167e-06 -0.00258763 30.0074 -1.91335e-06 -0.00330539 30.0071 -2.22646e-06 -6.62712e-05 30.0044
-1.35714e-06 -0.00148009 30.0069 -2.22677e-06 4.64603e-06 30.0043 -1.32868e-06 -0.000717714 30.0073 -2.24141e-06
-0.000174008 30.0047 -1.40529e-06 -0.00200878 30.0082 -2.17811e-06 -0.00158101 30.0064 -1.72322e-06 -0.00346681
30.0081 -2.21356e-06 -0.00107899 30.0059 -1.63178e-06 -0.00329039 30.0082 -2.11085e-06 -0.00238251 30.0072
-1.8734e-06 -0.00345387 30.007 -2.23663e-06 3.40884e-06 30.0043 -1.32848e-06 -0.000986925 30.0084 -2.14971e-06
-0.00216977 30.007 -1.83337e-06 -0.00358838 30.0077 -2.25357e-06 -0.000470828 30.0051 -1.49849e-06 -0.00279749
30.0076 -2.25892e-06 -0.000312111 30.0049 -1.45608e-06 -0.00252983 30.0072 -2.2463e-06 -7.99924e-05 30.0045
-1.36167e-06 -0.00172448 30.0079 -2.25017e-06 -0.000662856 30.0054 -1.54625e-06 -0.00306996 30.0083 -2.21471e-06
-0.00137777 30.0062 -1.68486e-06 -0.00355008 30.007 -2.24301e-06 -2.33729e-06 30.0043 -1.32502e-06 -0.00126591
30.0075 -2.26598e-06 -0.000186518 30.0048 -1.41725e-06 -0.00228049 30.0081 -2.24813e-06 -0.000896096 30.0057
-1.59463e-06 -0.00334368 30.0085 -2.18822e-06 -0.00195091 30.0068 -1.79317e-06 -0.00370861 30 0
0 30 0 0 30.0038 -1.18128e-06 -0.000132764 30.0064 -2.10828e-06 1.20327e-06
30.0067 -2.20064e-06 1.86765e-05 30.0041 -1.26003e-06 -0.000316004 30.0081 -2.04485e-06 -0.00325547 30.0068
-2.2348e-06 3.07108e-05 30.0041 -1.28277e-06 -0.0005048 30.0083 -2.08551e-06 -0.00305044 30.0079 -2.00402e-06
-0.00344742 30.0073 -2.27146e-06 -8.42091e-05 30.0045 -1.37325e-06 -0.00201301 30.007 -2.25552e-06 -3.02049e-06
30.0043 -1.32662e-06 -0.00147799 30.0083 -2.25084e-06 -0.00117358 30.0059 -1.64645e-06 -0.00362006 30.0084
-2.12604e-06 -0.00283365 30.0077 -1.96296e-06 -0.00362532 30.0085 -2.22649e-06 -0.0017276 30.0066 -1.75296e-06
-0.00381408 30.0069 -2.25493e-06 3.5251e-05 30.0042 -1.30543e-06 -0.000700916 30.0077 -2.2858e-06 -0.000331657
30.0049 -1.46385e-06 -0.00281454 30.0079 -2.28342e-06 -0.000503354 30.0052 -1.51095e-06 -0.00309931 30.0086
-2.16638e-06 -0.00260652 30.0075 -1.92188e-06 -0.00378812 30.0076 -2.29017e-06 -0.00019205 30.0047 -1.42269e-06
-0.00254127 30.0081 -2.28249e-06 -0.000715029 30.0054 -1.55769e-06 -0.00338563 30.0069 -2.26501e-06 4.36806e-05
30.0041 -1.30007e-06 -0.000987195 30.0087 -2.2064e-06 -0.0023707 30.0073 -1.88077e-06 -0.00393518 30.0071
-2.27581e-06 -5.49771e-06 30.0043 -1.33041e-06 -0.00170076 30.0086 -2.26443e-06 -0.00150153 30.0063 -1.7129e-06
-0.00390458 30.0074 -2.29646e-06 -8.40115e-05 30.0046 -1.38499e-06 -0.00229548 30.0083 -2.28662e-06 -0.000969994
30.0057 -1.60776e-06 -0.0036769 30.0069 -2.27165e-06 4.78803e-05 30.0041 -1.30063e-06 -0.00128331 30.0088
-2.24604e-06 -0.00212791 30.007 -1.83949e-06 -0.00406616 30 0 0 30.0063 -2.13547e-06
5.38377e-06 30.0067 -2.22833e-06 3.0073e-05 30.0079 -2.31638e-06 -0.000347635 30.005 -1.47547e-06 -0.00311903
30.0073 -2.3014e-06 1.93404e-06 30.0043 -1.34148e-06 -0.00201091 30.0084 -2.09581e-06 -0.00355474 30.0086
-2.30188e-06 -0.00127441 30.0061 -1.67287e-06 -0.00398014 30.0068 -2.26272e-06 5.06658e-05 30.0077 -2.31768e-06
-0.000196619 30.0047 -1.42945e-06 -0.00282168 30.0081 -2.31666e-06 -0.000537072 30.0052 -1.52139e-06 -0.00341667
30.0085 -2.13767e-06 -0.00332935 30.0082 -2.05378e-06 -0.00376523 30.007 -2.28448e-06 5.73154e-05 30.0041
-1.29824e-06 -0.00147198 30.0089 -2.28543e-06 -0.00188003 30.0068 -1.79823e-06 -0.0041806 30.0087 -2.17936e-06
-0.0030905 30.0079 -2.01157e-06 -0.00395972 30.0068 -2.28279e-06 6.42827e-05 30.0075 -2.32117e-06 -7.62509e-05
30.0045 -1.38979e-06 -0.00254693 30.0083 -2.32218e-06 -0.000768513 30.0055 -1.56936e-06 -0.00372076 30.0089
-2.22085e-06 -0.00283984 30.0077 -1.96936e-06 -0.00413708 30.0069 -2.29309e-06 8.18456e-05 30.0071 -2.30517e-06
6.55099e-05 30.0041 -1.30538e-06 -0.00167176 30.009 -2.26201e-06 -0.00257922 30.0075 -1.92714e-06 -0.00429663
30.0089 -2.32446e-06 -0.00162903 30.0065 -1.75716e-06 -0.00427833 30.0074 -2.3268e-06 1.42372e-05 30.0044
-1.35306e-06 -0.00231623 30.0086 -2.33895e-06 -0.00104801 30.0058 -1.63255e-06 -0.00404088 30.0069 -2.3e-06
9.54262e-05 30.0078 -2.34898e-06 -0.000196677 30.0048 -1.44017e-06 -0.00312963 30.0081 -2.35052e-06 -0.000363468
30.005 -1.48513e-06 -0.00343744 30.0091 -2.3028e-06 -0.00231062 30.0072 -1.88481e-06 -0.00443799 30.0076
-2.34929e-06 -6.65286e-05 30.0045 -1.39552e-06 -0.00281664 30.0083 -2.35751e-06 -0.000570607 30.0053 -1.53164e-06
-0.00375182 30.0072 -2.33114e-06 8.39475e-05 30.0042 -1.31235e-06 -0.00200261 30 0 0
30 0 0 30.0063 -2.16246e-06 9.29981e-06 30.0036 -1.14259e-06 -0.000179449 30.009
-2.363e-06 -0.00137684 30.0063 -1.7163e-06 -0.0043595 30.0066 -2.25578e-06 4.09254e-05 30.0069 -2.31314e-06
0.000114403 30.0086 -2.14229e-06 -0.00387339 30.0075 -2.35202e-06 3.46221e-05 30.0044 -1.35727e-06 -0.00254914
30.0067 -2.29035e-06 6.95918e-05 30.0088 -2.1857e-06 -0.00362579 30.0084 -2.09868e-06 -0.00410406 30.0092
-2.3433e-06 -0.00203619 30.0086 -2.37574e-06 -0.000824059 30.007 -1.84252e-06 -0.00456065 30.0056 -1.59245e-06
-0.00408685 30.0038 -1.22453e-06 -0.000532384 30.009 -2.22888e-06 -0.00336286 30.0081 -2.0549e-06 -0.00431649
30.0068 -2.31031e-06 9.16245e-05 30.0091 -2.2718e-06 -0.00308642 30.0079 -2.01109e-06 -0.00450961 30.0073
-2.35693e-06 0.000107673 30.0042 -1.32781e-06 -0.00233735 30.007 -2.33424e-06 0.000132651 30.009 -2.40113e-06
-0.00112549 30.006 -1.67529e-06 -0.0044244 30.0068 -2.32085e-06 0.000117741 30.008 -2.38401e-06 -0.000195343
30.0048 -1.44914e-06 -0.00344938 30.0092 -2.38341e-06 -0.00175817 30.0067 -1.80047e-06 -0.00466455 30.0038
-1.23965e-06 -0.0010008 30.0078 -2.3813e-06 -5.14223e-05 30.0046 -1.40545e-06 -0.00313178 30.0093 -2.31437e-06
-0.0027986 30.0076 -1.96728e-06 -0.00468257 30.0083 -2.39252e-06 -0.000377698 30.005 -1.4942e-06 -0.00377027
30.0076 -2.38074e-06 5.78565e-05 30.0043 -1.36196e-06 -0.00279663 30.0086 -2.41227e-06 -0.000604233 30.0054
-1.55309e-06 -0.00411803 30.0068 -2.32803e-06 0.000140096 30.0094 -2.35653e-06 -0.00250165 30.0073 -1.92333e-06
-0.00483492 30.0071 -2.36056e-06 0.000161418 30.0093 -2.42301e-06 -0.00147879 30.0064 -1.75868e-06 -0.00474993
30.0074 -2.38264e-06 0.000139948 30.0042 -1.32708e-06 -0.00254962 30.009 -2.43897e-06 -0.000876989 30.0058
-1.63452e-06 -0.00447342 30 0 0 30.0062 -2.18918e-06 1.28295e-05 30.0066 -2.28298e-06
5.11716e-05 30.0069 -2.34148e-06 0.000167995 30.0038 -1.23897e-06 -0.00146369 30.0095 -2.39835e-06 -0.00219803
30.0071 -1.8794e-06 -0.0049662 30.0088 -2.18835e-06 -0.00421984 30.0066 -2.3177e-06 8.75318e-05 30.0091
-2.23342e-06 -0.00394737 30.0086 -2.14307e-06 -0.00447309 30.0093 -2.27822e-06 -0.00365749 30.0083 -2.09761e-06
-0.00470568 30.008 -2.41721e-06 -3.3772e-05 30.0046 -1.41381e-06 -0.00345611 30.0082 -2.42714e-06 -0.000191086
30.0048 -1.4572e-06 -0.00377647 30.0067 -2.33759e-06 0.000117155 30.0077 -2.41344e-06 8.72727e-05 30.0044
-1.37104e-06 -0.00312653 30.0086 -2.44847e-06 -0.00039015 30.0051 -1.51392e-06 -0.00413429 30.0072 -2.38671e-06
0.000195828 30.0094 -2.32273e-06 -0.00335226 30.0081 -2.05217e-06 -0.00491645 30.0093 -2.46219e-06 -0.00120038
30.0062 -1.71689e-06 -0.00481726 30.007 -2.36297e-06 0.000195628 30.0095 -2.43972e-06 -0.00189031 30.0068