# vtk DataFile Version 2.0
track0
ASCII
DATASET POLYDATA
POINTS 15210 float
-1.001 -0.05 0.0011
-1.00088 -0.05 0.0011
-1.00076 -0.05 0.00109999
-1.00064 -0.05 0.00109999
-1.00052 -0.05 0.00109999
-1.0004 -0.05 0.00109998
-0.975398 -0.05 0.00109925
-0.9504 -0.0499999 0.00109824
-0.925402 -0.0499999 0.00109723
-0.900404 -0.0499998 0.00109622
-0.875406 -0.0499998 0.00109522
-0.850407 -0.0499998 0.0010941
-0.825407 -0.0499996 0.00109261
-0.800408 -0.0499995 0.00109113
-0.775408 -0.0499993 0.00108966
-0.750409 -0.0499992 0.00108818
-0.737914 -0.049999 0.00108725
-0.72542 -0.0499989 0.00108572
-0.712925 -0.0499987 0.00108419
-0.700431 -0.0499985 0.00108267
-0.687936 -0.0499983 0.00108114
-0.675431 -0.0499983 0.00108007
-0.662926 -0.0499981 0.00107838
-0.65042 -0.0499979 0.0010767
-0.637915 -0.0499977 0.00107502
-0.62541 -0.0499975 0.00107334
-0.612898 -0.0499973 0.00107203
-0.600387 -0.049997 0.00107011
-0.587876 -0.0499967 0.00106819
-0.575365 -0.0499964 0.00106627
-0.562854 -0.0499961 0.00106436
-0.550338 -0.0499962 0.0010628
-0.537822 -0.0499958 0.00106064
-0.525307 -0.0499954 0.00105848
-0.512791 -0.0499951 0.00105633
-0.500275 -0.0499947 0.00105418
-0.487751 -0.0499943 0.0010524
-0.475226 -0.0499938 0.00105009
-0.462701 -0.0499933 0.00104779
-0.450177 -0.0499928 0.00104549
-0.437652 -0.0499923 0.00104319
-0.42513 -0.0499924 0.00104126
-0.412607 -0.0499917 0.00103882
-0.400084 -0.0499911 0.00103639
-0.387562 -0.0499904 0.00103396
-0.375039 -0.0499898 0.00103154
-0.362534 -0.049989 0.00102974
-0.350028 -0.0499882 0.0010281
-0.337522 -0.0499873 0.00102647
-0.325017 -0.0499865 0.00102484
-0.312511 -0.0499857 0.00102321
-0.306259 -0.0499852 0.00102246
-0.300007 -0.0499842 0.00102116
-0.293755 -0.0499833 0.00101985
-0.287503 -0.0499824 0.00101855
-0.281251 -0.0499814 0.00101725
-0.275 -0.0499802 0.00101661
-0.26875 -0.0499791 0.00101562
-0.2625 -0.0499779 0.00101463
-0.25625 -0.0499768 0.00101365
-0.25 -0.0499756 0.00101266
-0.24375 -0.049975 0.00101225
-0.2375 -0.0499737 0.00101153
-0.23125 -0.0499723 0.00101082
-0.225 -0.0499709 0.0010101
-0.21875 -0.0499695 0.00100939
-0.2125 -0.0499679 0.00100924
-0.20625 -0.0499662 0.00100887
-0.2 -0.0499646 0.00100849
-0.19375 -0.0499629 0.00100812
-0.1875 -0.0499612 0.00100775
-0.18125 -0.0499605 0.00100797
-0.175 -0.0499585 0.00100806
-0.16875 -0.0499565 0.00100814
-0.1625 -0.0499545 0.00100822
-0.15625 -0.0499526 0.00100831
-0.153125 -0.0499514 0.00100848
-0.15 -0.0499492 0.00100876
-0.146875 -0.0499469 0.00100903
-0.14375 -0.0499447 0.0010093
-0.140625 -0.0499424 0.00100957
-0.1375 -0.0499405 0.00100985
-0.134374 -0.0499379 0.00101033
-0.131249 -0.0499353 0.00101081
-0.128124 -0.0499328 0.00101128
-0.124999 -0.0499302 0.00101176
-0.121874 -0.0499288 0.00101216
-0.118749 -0.0499259 0.00101281
-0.115624 -0.0499231 0.00101346
-0.112499 -0.0499202 0.00101411
-0.109374 -0.0499173 0.00101475
-0.106249 -0.0499152 0.00101529
-0.103124 -0.0499121 0.00101607
-0.0999989 -0.049909 0.00101684
-0.0968739 -0.0499059 0.00101762
-0.0937488 -0.0499027 0.0010184
-0.0906239 -0.0499011 0.00101903
-0.0874989 -0.0498978 0.00101992
-0.0843739 -0.0498945 0.00102081
-0.0812489 -0.0498912 0.00102171
-0.0781239 -0.0498878 0.0010226
-0.0749989 -0.0498854 0.00102336
-0.0718739 -0.0498818 0.00102436
-0.0687489 -0.0498783 0.00102536
-0.0656238 -0.0498747 0.00102636
-0.0624988 -0.0498712 0.00102737
-0.0593738 -0.0498694 0.00102821
-0.0562488 -0.0498656 0.00102932
-0.0531238 -0.0498618 0.00103043
-0.0499988 -0.0498581 0.00103154
-0.0468738 -0.0498543 0.00103266
-0.0437488 -0.0498516 0.00103362
-0.0406238 -0.0498476 0.00103483
-0.0374988 -0.0498436 0.00103605
-0.0343738 -0.0498396 0.00103727
-0.0312488 -0.0498356 0.00103849
-0.0281239 -0.0498336 0.00103953
-0.0249989 -0.0498294 0.00104085
-0.0218739 -0.0498251 0.00104217
-0.018749 -0.0498209 0.00104349
-0.015624 -0.0498166 0.00104481
-0.012499 -0.0498137 0.00104597
-0.00937393 -0.0498093 0.00104738
-0.00624889 -0.0498048 0.0010488
-0.00312386 -0.0498003 0.00105022
1.18311e-06 -0.0497959 0.00105164
0.00312621 -0.0497937 0.00105288
0.00625124 -0.049789 0.00105439
0.00937627 -0.0497843 0.0010559
0.0125013 -0.0497796 0.00105741
0.0156263 -0.0497749 0.00105893
0.0187516 -0.0497718 0.00106027
0.0218768 -0.0497669 0.00106187
0.025002 -0.0497619 0.00106348
0.0281273 -0.049757 0.00106508
0.0312525 -0.0497521 0.00106669
0.0343793 -0.0497498 0.00106811
0.037506 -0.0497446 0.00106981
0.0406327 -0.0497395 0.0010715
0.0437595 -0.0497343 0.00107319
0.0468862 -0.0497292 0.00107489
0.050011 -0.0497257 0.00107641
0.0531358 -0.0497204 0.00107818
0.0562606 -0.049715 0.00107996
0.0593853 -0.0497097 0.00108174
0.0625101 -0.0497043 0.00108353
0.065635 -0.0497018 0.00108512
0.0687598 -0.0496962 0.00108697
0.0718846 -0.0496906 0.00108883
0.0750094 -0.049685 0.00109069
0.0781342 -0.0496794 0.00109256
0.0812601 -0.0496757 0.00109423
0.084386 -0.0496699 0.00109617
0.0875119 -0.0496641 0.00109811
0.0906377 -0.0496583 0.00110005
0.0937636 -0.0496525 0.00110199
0.0968915 -0.0496498 0.00110373
0.100019 -0.0496438 0.00110574
0.103147 -0.0496378 0.00110776
0.106275 -0.0496317 0.00110978
0.109403 -0.0496257 0.0011118
0.112529 -0.0496217 0.00111361
0.115655 -0.0496155 0.00111569
0.118781 -0.0496093 0.00111777
0.121907 -0.049603 0.00111986
0.125032 -0.0495968 0.00112195
0.128157 -0.0495939 0.00112383
0.131283 -0.0495875 0.00112597
0.134408 -0.0495811 0.00112812
0.137533 -0.0495746 0.00113027
0.140658 -0.0495681 0.00113242
0.143784 -0.049564 0.00113436
0.146909 -0.0495573 0.00113656
0.150035 -0.0495507 0.00113877
0.153161 -0.049544 0.00114098
0.156287 -0.0495374 0.0011432
0.159413 -0.0495343 0.00114519
0.16254 -0.0495275 0.00114746
0.165667 -0.0495206 0.00114972
0.168794 -0.0495138 0.00115199
0.171921 -0.0495069 0.00115427
0.175047 -0.0495025 0.00115631
0.178172 -0.0494954 0.00115862
0.181298 -0.0494884 0.00116094
0.184424 -0.0494813 0.00116326
0.18755 -0.0494742 0.00116559
0.190674 -0.049471 0.00116768
0.193799 -0.0494638 0.00117004
0.196923 -0.0494566 0.0011724
0.200048 -0.0494493 0.00117477
0.203172 -0.049442 0.00117714
0.206296 -0.0494374 0.00117927
0.209421 -0.04943 0.00118167
0.212545 -0.0494226 0.00118407
0.215669 -0.0494151 0.00118648
0.218794 -0.0494077 0.00118889
0.221919 -0.0494044 0.00119106
0.225045 -0.0493968 0.0011935
0.22817 -0.0493892 0.00119594
0.231296 -0.0493816 0.00119839
0.234421 -0.0493739 0.00120084
0.237548 -0.0493691 0.00120303
0.240674 -0.0493613 0.00120551
0.2438 -0.0493536 0.00120798
0.246927 -0.0493458 0.00121047
0.250053 -0.049338 0.00121295
0.25318 -0.0493345 0.00121518
0.256307 -0.0493266 0.00121769
0.259434 -0.0493186 0.0012202
0.262561 -0.0493107 0.00122271
0.265688 -0.0493027 0.00122523
0.268813 -0.0492977 0.00122747
0.271938 -0.0492896 0.00123
0.275062 -0.0492815 0.00123253
0.278187 -0.0492734 0.00123507
0.281312 -0.0492653 0.00123761
0.284435 -0.0492616 0.00123989
0.287558 -0.0492534 0.00124243
0.290681 -0.0492452 0.00124498
0.293804 -0.049237 0.00124754
0.296927 -0.0492287 0.0012501
0.30005 -0.0492235 0.00125237
0.303174 -0.0492152 0.00125493
0.306297 -0.0492068 0.0012575
0.309421 -0.0491984 0.00126007
0.312544 -0.04919 0.00126264
0.315668 -0.0491863 0.00126494
0.318793 -0.0491779 0.00126751
0.321917 -0.0491694 0.00127009
0.325041 -0.0491609 0.00127267
0.328166 -0.0491523 0.00127526
0.331291 -0.049147 0.00127755
0.334416 -0.0491384 0.00128013
0.337541 -0.0491298 0.00128272
0.340666 -0.0491212 0.00128531
0.343791 -0.0491125 0.0012879
0.346916 -0.0491087 0.00129022
0.350042 -0.0491 0.00129281
0.353168 -0.0490913 0.0012954
0.356294 -0.0490825 0.001298
0.35942 -0.0490738 0.0013006
0.362549 -0.0490683 0.0013029
0.365679 -0.0490595 0.00130549
0.368808 -0.0490506 0.00130809
0.371938 -0.0490418 0.00131069
0.375068 -0.0490329 0.0013133
0.378205 -0.049029 0.00131563
0.381343 -0.04902 0.00131823
0.384481 -0.0490111 0.00132083
0.387619 -0.0490021 0.00132344
0.390756 -0.0489931 0.00132605
0.393889 -0.0489875 0.00132836
0.397022 -0.0489785 0.00133095
0.400155 -0.0489695 0.00133354
0.403288 -0.0489604 0.00133614
0.406421 -0.0489514 0.00133875
0.409551 -0.0489474 0.00134106
0.412682 -0.0489383 0.00134364
0.415813 -0.0489292 0.00134623
0.418943 -0.0489201 0.00134882
0.422074 -0.048911 0.00135142
0.425204 -0.0489053 0.0013537
0.428334 -0.0488961 0.00135628
0.431464 -0.0488869 0.00135886
0.434594 -0.0488778 0.00136144
0.437724 -0.0488685 0.00136403
0.440854 -0.0488645 0.00136633
0.443984 -0.0488553 0.00136889
0.447114 -0.048846 0.00137146
0.450244 -0.0488367 0.00137404
0.453374 -0.0488275 0.00137662
0.456504 -0.0488217 0.00137888
0.459634 -0.0488124 0.00138143
0.462763 -0.0488031 0.00138399
0.465893 -0.0487938 0.00138655
0.469023 -0.0487844 0.00138912
0.472152 -0.0487803 0.00139139
0.475282 -0.048771 0.00139393
0.478411 -0.0487616 0.00139647
0.481541 -0.0487522 0.00139902
0.48467 -0.0487428 0.00140158
0.4878 -0.048737 0.00140381
0.490929 -0.0487276 0.00140633
0.494058 -0.0487182 0.00140886
0.497187 -0.0487088 0.00141139
0.500317 -0.0486993 0.00141393
0.503446 -0.0486952 0.00141616
0.506575 -0.0486857 0.00141867
0.509704 -0.0486763 0.00142118
0.512833 -0.0486668 0.00142369
0.515962 -0.0486573 0.00142621
0.519091 -0.0486514 0.00142841
0.52222 -0.048642 0.00143089
0.525348 -0.0486325 0.00143338
0.528477 -0.048623 0.00143588
0.531606 -0.0486134 0.00143838
0.534734 -0.0486093 0.00144057
0.537863 -0.0485998 0.00144304
0.540992 -0.0485902 0.00144551
0.54412 -0.0485807 0.00144798
0.547249 -0.0485712 0.00145046
0.550377 -0.0485652 0.00145261
0.553506 -0.0485557 0.00145506
0.556634 -0.0485462 0.0014575
0.559762 -0.0485366 0.00145995
0.562891 -0.0485271 0.00146241
0.566019 -0.0485229 0.00146456
0.569147 -0.0485133 0.00146698
0.572275 -0.0485038 0.0014694
0.575403 -0.0484942 0.00147183
0.578532 -0.0484846 0.00147426
0.58166 -0.0484787 0.00147637
0.584788 -0.0484691 0.00147876
0.587915 -0.0484596 0.00148116
0.591043 -0.04845 0.00148356
0.594171 -0.0484404 0.00148597
0.597299 -0.0484362 0.00148808
0.600427 -0.0484267 0.00149045
0.603555 -0.0484171 0.00149283
[...]
POINT_DATA 15210
 FIELD attributes 1
U 3 15210 float
25.0026 	1.9452e-05 	-0.0007008 25.0025 	1.89769e-05 	-0.000707726 25.0023 	1.85018e-05 	-0.000714652 25.0022 	1.80267e-05 	-0.000721579 25.002 	1.75517e-05 	-0.000728505 25.0019 	1.70766e-05 	-0.000735431 25.0046 	5.1818e-05 	-0.00100911 25.0046 	5.17704e-05 	-0.00100819 25.0046 	5.17229e-05 	-0.00100726 25.0046 	5.16754e-05 	-0.00100634 25.0028 	-3.89705e-06 	-0.00112204 25.0075 	0.000156632 	-0.00148227 25.0074 	0.00015642 	-0.00148026 25.0074 	0.000156208 	-0.00147825 25.0074 	0.000155997 	-0.00147625 25.0093 	0.000216302 	-0.00186047 25.0184 	0.000367476 	-0.00306341 25.0184 	0.000366959 	-0.0030591 25.0183 	0.000366443 	-0.0030548 25.0183 	0.000365927 	-0.0030505 25.0109 	-3.81104e-05 	-0.00214764 25.0235 	0.000441929 	-0.00337584 25.0234 	0.000441239 	-0.00337057 25.0234 	0.00044055 	-0.00336531 25.0234 	0.000439862 	-0.00336005 25.0135 	0.000399644 	-0.00260918 25.0295 	0.000563384 	-0.00384949 25.0294 	0.000562373 	-0.00384258 25.0294 	0.000561363 	-0.00383568 25.0293 	0.000560356 	-0.0038288 25.0167 	-8.58214e-05 	-0.00312109 25.0366 	0.000744399 	-0.00431963 25.0366 	0.000742887 	-0.00431085 25.0365 	0.000741377 	-0.00430209 25.0364 	0.000739871 	-0.00429335 25.0204 	0.000823064 	-0.00356219 25.0449 	0.000987305 	-0.00461877 25.0448 	0.000985138 	-0.00460863 25.0447 	0.000982976 	-0.00459851 25.0446 	0.000980819 	-0.00458842 25.0251 	-0.000180787 	-0.00385936 25.0551 	0.0013205 	-0.00488127 25.055 	0.00131741 	-0.00486983 25.0549 	0.00131432 	-0.00485842 25.0548 	0.00131124 	-0.00484704 25.0301 	0.00157742 	-0.00359583 25.0652 	0.00165308 	-0.00327823 25.0651 	0.00165046 	-0.00327302 25.0649 	0.00164783 	-0.00326782 25.0648 	0.00164522 	-0.00326263 25.071 	0.00195441 	-0.00301395 25.1403 	0.0038191 	-0.00524736 25.1401 	0.00381422 	-0.00524066 25.1399 	0.00380936 	-0.00523397 25.1397 	0.00380449 	-0.00522729 25.0742 	0.00488565 	-0.00257517 25.1503 	0.00458291 	-0.00397957 25.1502 	0.00457846 	-0.0039757 25.15 	0.004574 	-0.00397183 25.1499 	0.00456955 	-0.00396797 25.0794 	0.00238663 	-0.00163597 25.1586 	0.00558604 	-0.00288724 25.1585 	0.00558208 	-0.0028852 25.1584 	0.00557813 	-0.00288315 25.1582 	0.00557417 	-0.00288111 25.0829 	0.00634599 	-0.000591525 25.1658 	0.00673978 	-0.00150326 25.1657 	0.00673728 	-0.0015027 25.1657 	0.00673479 	-0.00150214 25.1656 	0.0067323 	-0.00150159 25.087 	0.00302798 	0.000907132 25.1706 	0.00796387 	0.00033809 25.1706 	0.00796453 	0.000338118 25.1706 	0.0079652 	0.000338146 25.1706 	0.00796586 	0.000338174 25.1734 	0.00927384 	0.00141125 25.3456 	0.0182235 	0.00220874 25.3457 	0.0182284 	0.00220934 25.3458 	0.0182333 	0.00220993 25.3459 	0.0182383 	0.00221053 25.1747 	0.0157448 	0.00224778 25.3509 	0.0208294 	0.0038724 25.3511 	0.0208392 	0.00387423 25.3512 	0.0208491 	0.00387606 25.3514 	0.0208589 	0.0038779 25.1778 	0.0112659 	0.00322737 25.3545 	0.0231898 	0.00525137 25.3547 	0.0232046 	0.00525473 25.355 	0.0232194 	0.00525809 25.3552 	0.0232343 	0.00526145 25.1784 	0.0176764 	0.00433585 25.357 	0.0251315 	0.00628919 25.3573 	0.0251507 	0.00629399 25.3576 	0.0251699 	0.00629879 25.3579 	0.0251891 	0.0063036 25.1803 	0.0129219 	0.00507833 25.3581 	0.0269918 	0.00724055 25.3584 	0.0270154 	0.00724689 25.3587 	0.0270391 	0.00725324 25.359 	0.0270628 	0.00725959 25.1798 	0.0195582 	0.00609297 25.3582 	0.0287906 	0.0081266 25.3586 	0.0288188 	0.00813456 25.3589 	0.028847 	0.00814252 25.3593 	0.0288752 	0.00815048 25.1808 	0.0143837 	0.00677323 25.3579 	0.0306308 	0.0090082 25.3583 	0.0306639 	0.00901793 25.3587 	0.030697 	0.00902767 25.3591 	0.0307301 	0.00903741 25.1799 	0.0215464 	0.00774729 25.3568 	0.0324715 	0.0098619 25.3572 	0.0325097 	0.00987349 25.3576 	0.0325479 	0.0098851 25.358 	0.0325862 	0.00989673 25.18 	0.0158649 	0.00841382 25.3548 	0.0343138 	0.0106834 25.3552 	0.0343573 	0.0106969 25.3557 	0.0344008 	0.0107105 25.3561 	0.0344444 	0.010724 25.1782 	0.0235822 	0.00933032 25.3519 	0.0361658 	0.011479 25.3524 	0.0362147 	0.0114945 25.3529 	0.0362637 	0.0115101 25.3534 	0.0363128 	0.0115256 25.1775 	0.0173467 	0.00997978 25.3482 	0.0379694 	0.0122465 25.3487 	0.0380238 	0.0122641 25.3492 	0.0380783 	0.0122817 25.3497 	0.0381329 	0.0122993 25.1748 	0.0256106 	0.0108241 25.3437 	0.0397821 	0.0129847 25.3442 	0.0398422 	0.0130043 25.3447 	0.0399024 	0.013024 25.3452 	0.0399626 	0.0130436 25.1733 	0.0188175 	0.011454 25.3385 	0.0415968 	0.0137002 25.3391 	0.0416626 	0.0137219 25.3396 	0.0417286 	0.0137436 25.3401 	0.0417946 	0.0137654 25.17 	0.0276581 	0.0122187 25.3328 	0.0433831 	0.0143871 25.3333 	0.0434546 	0.0144108 25.3339 	0.0435262 	0.0144346 25.3344 	0.043598 	0.0144584 25.1675 	0.02025 	0.0128009 25.3262 	0.0451688 	0.0150425 25.3268 	0.0452461 	0.0150682 25.3273 	0.0453235 	0.015094 25.3279 	0.045401 	0.0151198 25.1639 	0.0296967 	0.0134898 25.3191 	0.0469415 	0.0156684 25.3197 	0.0470245 	0.0156961 25.3203 	0.0471076 	0.0157239 25.3208 	0.0471909 	0.0157517 25.1607 	0.0216801 	0.0140218 25.3116 	0.0486665 	0.0162663 25.3122 	0.0487551 	0.0162959 25.3128 	0.0488439 	0.0163256 25.3133 	0.0489329 	0.0163553 25.1565 	0.0316827 	0.0146232 25.3034 	0.0503565 	0.0168242 25.304 	0.0504504 	0.0168556 25.3046 	0.0505446 	0.016887 25.3051 	0.0506389 	0.0169186 25.1526 	0.0230557 	0.0151027 25.2947 	0.052018 	0.0173416 25.2952 	0.0521171 	0.0173747 25.2958 	0.0522165 	0.0174078 25.2963 	0.052316 	0.017441 25.1479 	0.033586 	0.0156015 25.2856 	0.0536603 	0.0178262 25.2861 	0.0537646 	0.0178608 25.2867 	0.053869 	0.0178955 25.2872 	0.0539736 	0.0179302 25.1435 	0.0244014 	0.0160346 25.2762 	0.0553076 	0.018279 25.2768 	0.0554168 	0.0183151 25.2773 	0.0555262 	0.0183513 25.2779 	0.0556358 	0.0183875 25.1387 	0.0354844 	0.0164357 25.2665 	0.056899 	0.0186934 25.2671 	0.0570128 	0.0187308 25.2676 	0.0571268 	0.0187683 25.2681 	0.0572411 	0.0188058 25.1339 	0.0257115 	0.0168172 25.2563 	0.0584016 	0.0190618 25.2568 	0.0585195 	0.0191003 25.2574 	0.0586377 	0.0191388 25.2579 	0.0587561 	0.0191775 25.1286 	0.0372216 	0.0171091 25.2458 	0.0598378 	0.0193848 25.2463 	0.0599596 	0.0194242 25.2468 	0.0600815 	0.0194637 25.2473 	0.0602038 	0.0195033 25.1233 	0.0268861 	0.0174325 25.2351 	0.0612338 	0.0196798 25.2356 	0.0613591 	0.0197201 25.2361 	0.0614847 	0.0197604 25.2366 	0.0616105 	0.0198009 25.118 	0.0388346 	0.0176343 25.2245 	0.0625901 	0.0199462 25.225 	0.0627188 	0.0199872 25.2254 	0.0628477 	0.0200282 25.2259 	0.0629768 	0.0200694 25.1127 	0.0280158 	0.0179159 25.2139 	0.0639009 	0.020186 25.2143 	0.0640325 	0.0202276 25.2147 	0.0641644 	0.0202692 25.2152 	0.0642966 	0.020311 25.1073 	0.0403821 	0.0180389 25.203 	0.0651205 	0.0203829 25.2034 	0.0652545 	0.0204248 25.2038 	0.0653889 	0.0204669 25.2042 	0.0655235 	0.020509 25.1017 	0.0290472 	0.0182788 25.1917 	0.0662253 	0.0205263 25.1921 	0.0663612 	0.0205685 25.1925 	0.0664974 	0.0206107 25.1929 	0.0666338 	0.020653 25.096 	0.041669 	0.0182922 25.1805 	0.0672527 	0.0206324 25.1808 	0.0673902 	0.0206746 25.1812 	0.0675279 	0.0207168 25.1816 	0.0676659 	0.0207592 25.0903 	0.0298853 	0.018477 25.1694 	0.0682341 	0.0207124 25.1697 	0.0683728 	0.0207545 25.1701 	0.0685118 	0.0207967 25.1704 	0.068651 	0.0208389 25.0849 	0.0428144 	0.0184231 25.1585 	0.0691753 	0.0207712 25.1588 	0.069315 	0.0208132 25.1591 	0.069455 	0.0208552 25.1594 	0.0695953 	0.0208973 25.0793 	0.0306749 	0.018578 25.1477 	0.0700671 	0.0208095 25.148 	0.0702075 	0.0208513 25.1483 	0.0703483 	0.0208931 25.1486 	0.0704893 	0.0209349 25.0741 	0.0438674 	0.0184588 25.1372 	0.070893 	0.0208236 25.1375 	0.071034 	0.020865 25.1377 	0.0711754 	0.0209065 25.138 	0.071317 	0.0209481 25.0687 	0.0313841 	0.0185908 25.1267 	0.071576 	0.0208103 25.1269 	0.0717174 	0.0208514 25.1272 	0.0718591 	0.0208926 25.1274 	0.072001 	0.0209338 25.0635 	0.0446846 	0.0184016 25.1164 	0.0722077 	0.0207652 25.1166 	0.0723485 	0.0208057 25.1168 	0.0724895 	0.0208462 25.117 	0.0726309 	0.0208869 25.0583 	0.0319205 	0.0184968 25.1064 	0.0728421 	0.0207146 25.1066 	0.0729824 	0.0207545 25.1068 	0.073123 	0.0207945 25.107 	0.0732638 	0.0208345 25.0534 	0.0454522 	0.0182739 25.0967 	0.0734369 	0.0206502 25.0969 	0.0735766 	0.0206895 25.0971 	0.0737166 	0.0207289 25.0973 	0.0738569 	0.0207683 25.0485 	0.0324363 	0.018348 25.0873 	0.073976 	0.0205671 25.0875 	0.0741149 	0.0206058 25.0877 	0.0742541 	0.0206445 25.0878 	0.0743936 	0.0206832 25.0439 	0.0461272 	0.018087 25.0782 	0.0744526 	0.0204646 25.0783 	0.0745905 	0.0205025 25.0785 	0.0747286 	0.0205405 25.0786 	0.074867 	0.0205785 25.0392 	0.0328544 	0.0181344 25.0693 	0.0748737 	0.0203459 25.0694 	0.0750104 	0.020383 25.0695 	0.0751473 	0.0204202 25.0697 	0.0752845 	0.0204575 25.0349 	0.0466693 	0.0178421 25.0607 	0.0752442 	0.0202106 25.0608 	0.0753794 	0.020247 25.0609 	0.075515 	0.0202834 25.061 	0.0756507 	0.0203198 25.0304 	0.0331801 	0.0178665 25.0524 	0.0755607 	0.0200635 25.0525 	0.0756944 	0.020099 25.0526 	0.0758284 	0.0201346 25.0527 	0.0759625 	0.0201702 25.0265 	0.04709 	0.0175528 25.0444 	0.0758213 	0.0199023 25.0445 	0.0759533 	0.019937 25.0446 	0.0760855 	0.0199717 25.0446 	0.0762179 	0.0200064 25.0222 	0.0334162 	0.0175557 25.0367 	0.0760312 	0.0197286 25.0368 	0.0761613 	0.0197624 25.0369 	0.0762916 	0.0197962 25.0369 	0.0764222 	0.0198301 25.0187 	0.0473816 	0.0172256 25.0294 	0.0761869 	0.0195417 25.0294 	0.076315 	0.0195745 25.0295 	0.0764433 	0.0196074 25.0295 	0.0765719 	0.0196404 25.0147 	0.0335643 	0.0172111 25.0224 	0.0762924 	0.0193463 25.0224 	0.0764184 	0.0193782 25.0225 	0.0765446 	0.0194102 25.0225 	0.076671 	0.0194423 25.0115 	0.0475525 	0.0168745 25.0157 	0.0763219 	0.0191424 25.0157 	0.0764457 	0.0191734 25.0157 	0.0765696 	0.0192045 25.0158 	0.0766938 	0.0192356 25.0078 	0.0336119 	0.0168809 25.0097 	0.0763189 	0.0190008 25.0097 	0.0764408 	0.0190311 25.0097 	0.0765629 	0.0190615 25.0097 	0.0766852 	0.019092 25.0049 	0.0476124 	0.0165863 25.0031 	0.0762979 	0.0188918 25.0031 	0.0764181 	0.0189216 25.0031 	0.0765385 	0.0189514 25.0031 	0.0766591 	0.0189813 25.0014 	0.0336228 	0.016626 24.9973 	0.0762906 	0.0187966 24.9973 	0.0764093 	0.0188259 24.9973 	0.0765282 	0.0188552 24.9973 	0.0766473 	0.0188845 24.9988 	0.0476053 	0.0163365 24.9912 	0.0761952 	0.0186525 24.9912 	0.076312 	0.0186811 24.9911 	0.076429 	0.0187097 24.9911 	0.0765461 	0.0187384 24.9955 	0.0335841 	0.0163546 24.986 	0.0761044 	0.0185556 24.986 	0.0762197 	0.0185837 24.9859 	0.076335 	0.0186118 24.9859 	0.0764506 	0.01864 24.9932 	0.0475345 	0.0160868 24.98 	0.0760128 	0.0184868 24.98 	0.0761267 	0.0185145 24.9799 	0.0762407 	0.0185422 24.9799 	0.0763548 	0.01857 24.9901 	0.0335165 	0.0160927 24.9748 	0.0759082 	0.0183333 24.9748 	0.0760202 	0.0183603 24.9747 	0.0761323 	0.0183874 24.9747 	0.0762445 	0.0184145 24.9881 	0.0474316 	0.0157788 24.97 	0.0757549 	0.0181034 24.9699 	0.0758644 	0.0181295 24.9699 	0.0759741 	0.0181558 24.9699 	0.076084 	0.018182 24.9853 	0.0334036 	0.0157017 24.9654 	0.0755589 	0.0178672 24.9654 	0.075666 	0.0178925 24.9653 	0.0757732 	0.0179179 24.9653 	0.0758443 	0.0179414 24.9836 	0.0471438 	0.0153858 24.9614 	0.0748499 	0.0176102 24.9614 	0.074688 	0.0176195 24.9615 	0.0745267 	0.0176288 24.9616 	0.0743659 	0.0176382 24.981 	0.0332379 	0.0153159 24.9581 	0.0734401 	0.017347 24.9582 	0.0732839 	0.0173577 24.9583 	0.0731281 	0.0173685 24.9584 	0.0729729 	0.0173793 24.9796 	0.0461209 	0.0150406 24.9551 	0.0719866 	0.0170726 24.9552 	0.0718322 	0.0170813 24.9553 	0.0716784 	0.0170901 24.9553 	0.071525 	0.017099 24.9773 	0.0330423 	0.0149737 24.9526 	0.070641 	0.0168468 24.9527 	0.0704922 	0.0168568 24.9528 	0.0703438 	0.0168669 24.9529 	0.070196 	0.016877 24.976 	0.0451076 	0.0147271 24.9501 	0.0692211 	0.0165798 24.9502 	0.0690743 	0.016588 24.9502 	0.0689279 	0.0165963 24.9503 	0.0687821 	0.0166047 24.974 	0.0328237 	0.0146562 24.9482 	0.0679437 	0.0163863 24.9483 	0.0678024 	0.0163958 24.9484 	0.0676614 	0.0164052 24.9485 	0.067521 	0.0164147 24.9729 	0.0441135 	0.0144383 24.9461 	0.0665457 	0.0161226 24.9462 	0.0664063 	0.0161305 24.9463 	0.0662674 	0.0161383 24.9464 	0.0661289 	0.0161462 24.9711 	0.0325812 	0.0143579 24.9448 	0.065287 	0.0159468 24.9449 	0.0651105 	0.0159536 24.945 	0.0649346 	0.0159606 24.9452 	0.0647593 	0.0159675 24.9702 	0.0430488 	0.0141591 24.9433 	0.0637439 	0.0156723 24.9435 	0.0635714 	0.0156777 24.9436 	0.0633993 	0.015683 24.9437 	0.0632278 	0.0156884 24.9686 	0.032322 	0.014071 24.9425 	0.0624193 	0.0155145 24.9426 	0.0622542 	0.0155211 24.9428 	0.0620895 	0.0155278 24.9429 	0.0619254 	0.0155345 24.9679 	0.0419665 	0.013898 24.9414 	0.0609464 	0.0152499 24.9416 	0.0607849 	0.0152552 24.9417 	0.0606239 	0.0152605 24.9418 	0.0604634 	0.0152658 24.9665 	0.0320581 	0.013803 24.941 	0.0597169 	0.0151152 24.9411 	0.0595592 	0.0151215 24.9412 	0.059402 	0.0151278 24.9414 	0.0592453 	0.0151342 24.9659 	0.0409358 	0.0136498 24.9402 	0.0582952 	0.0148462 24.9404 	0.0581441 	0.0148514 24.9405 	0.0579935 	0.0148566 24.9406 	0.0578433 	0.0148618 24.9647 	0.0317935 	0.0135422 24.9401 	0.057131 	0.0147428 24.9402 	0.0569773 	0.0147486 24.9403 	0.0568241 	0.0147543 24.9405 	0.0566714 	0.0147601 24.9642 	0.0399655 	0.0133964 24.9398 	0.0557258 	0.0144025 24.94 	0.0555196 	0.0144047 24.9402 	0.055314 	0.014407 24.9404 	0.055109 	0.0144093 24.9632 	0.0315651 	0.0132807 24.9403 	0.0542132 	0.0145569 24.9405 	0.0539511 	0.0145544 24.9408 	0.0536898 	0.0145519 24.9411 	0.0534291 	0.0145494 24.9628 	0.0388084 	0.0131158 24.9408 	0.0526964 	0.0130483 24.9413 	0.0522145 	0.0130582 24.9417 	0.051734 	0.0130681 24.9422 	0.0512548 	0.013078 24.9621 	0.03142 	0.013003 24.9617 	0.0310227 	0.0127332 24.9617 	0.0310791 	0.0127563 24.9616 	0.0311355 	0.0127795 24.9615 	0.0311921 	0.0128027 24.9838 	0.0239303 	0.0133545 24.9609 	0.0309591 	0.0123019 24.9608 	0.0310129 	0.0123233 24.9608 	0.0310667 	0.0123447 24.9607 	0.0311206 	0.0123661 24.983 	0.00986193 	0.0129581 24.9603 	0.0303627 	0.0125051 24.9603 	0.0304159 	0.012527 24.9602 	0.0304691 	0.0125489 24.9601 	0.0305224 	0.0125709 24.983 	0.0237232 	0.012817 24.9594 	0.0319632 	0.00977467 24.9593 	0.0320066 	0.00978794 24.9593 	0.03205 	0.00980122 24.9592 	0.0320935 	0.00981452 24.9824 	0.00978409 	0.012435 24.982 	0.0095342 	0.0120709 24.982 	0.00956585 	0.012111 24.9819 	0.0095976 	0.0121512 24.9818 	0.00962946 	0.0121915 24.9929 	-0.00219693 	0.0137004 24.9814 	0.00937686 	0.0118094 24.9814 	0.00940679 	0.0118471 24.9813 	0.00943681 	0.0118849 24.9813 	0.00946693 	0.0119228 24.9927 	0.012436 	0.0133432 24.9811 	0.00926377 	0.0116444 24.9811 	0.00929245 	0.0116805 24.981 	0.00932122 	0.0117166 24.981 	0.00935008 	0.0117529 24.9925 	-0.00214695 	0.0132651 24.9811 	0.00900702 	0.0112148 24.981 	0.00903346 	0.0112477 24.981 	0.00905997 	0.0112807 24.9809 	0.00908656 	0.0113138 24.9926 	0.0123541 	0.0129908 24.9815 	0.00950563 	0.0115061 24.9814 	0.00953382 	0.0115403 24.9814 	0.00956209 	0.0115745 24.9813 	0.00959045 	0.0116088 24.9926 	-0.00214549 	0.0128876 24.9818 	0.0068706 	0.00902344 24.9817 	0.00688634 	0.00904411 24.9817 	0.00690212 	0.00906484 24.9816 	0.00691794 	0.00908561 24.9928 	0.0124075 	0.0127328 24.9929 	0.0123383 	0.0125447 24.9928 	0.0124157 	0.0126234 24.9928 	0.0124936 	0.0127026 24.9927 	0.012572 	0.0127823 24.9968 	-0.00118472 	0.0138501 24.9927 	0.0122178 	0.0122055 24.9927 	0.01229 	0.0122776 24.9926 	0.0123626 	0.0123502 24.9926 	0.0124356 	0.0124232 24.997 	0.0147002 	0.0126735 24.9932 	0.0129419 	0.0126505 24.9932 	0.013019 	0.0127258 24.9932 	0.0130964 	0.0128015 24.9931 	0.0131744 	0.0128777 24.9972 	-0.00121874 	0.0136302 24.9945 	0.0102759 	0.0105745 24.9945 	0.0103255 	0.0106256 24.9945 	0.0103753 	0.0106769 24.9944 	0.0104254 	0.0107284 24.9976 	0.0155133 	0.0126789 24.9982 	0.0164259 	0.0125615 24.9982 	0.0166086 	0.0127012 24.9982 	0.0167933 	0.0128425 24.9981 	0.0169801 	0.0129853 24.9983 	-0.000869262 	0.0150949 24.9977 	0.0175367 	0.0124662 24.9977 	0.0177196 	0.0125962 24.9976 	0.0179044 	0.0127275 24.9976 	0.0180911 	0.0128602 24.9981 	0.0189232 	0.00965385 24.9976 	0.0185562 	0.0117734 24.9975 	0.0187302 	0.0118838 24.9975 	0.0189058 	0.0119952 24.9975 	0.019083 	0.0121077 24.9981 	-0.000980434 	0.0146296 24.999 	0.0160309 	0.00930637 24.999 	0.016144 	0.00937206 24.999 	0.016258 	0.00943822 24.999 	0.0163728 	0.00950485 24.9987 	0.0192253 	0.00932424 24.9994 	0.019518 	0.00896861 24.9994 	0.0197727 	0.00908564 24.9994 	0.0200307 	0.0092042 24.9994 	0.0202921 	0.00932431 24.995 	-0.000183274 	0.0092033 24.9989 	0.020579 	0.00862365 24.9989 	0.0208211 	0.0087251 24.9989 	0.021066 	0.00882774 24.9989 	0.0213139 	0.00893159 24.9975 	0.0076628 	0.00247156 24.9985 	0.0211323 	0.00840957 24.9984 	0.0213629 	0.00850134 24.9984 	0.0215961 	0.00859412 24.9984 	0.0218317 	0.0086879 24.9952 	-0.000260717 	0.00928968 24.9985 	0.0219382 	0.00941876 24.9984 	0.022192 	0.00952772 24.9984 	0.0224488 	0.00963795 24.9984 	0.0227085 	0.00974946 24.9973 	0.00787708 	0.00289354 24.9972 	0.00763908 	0.00312348 24.9971 	0.00769468 	0.00314622 24.9971 	0.00775069 	0.00316912 24.9971 	0.00780711 	0.00319219 24.9986 	-7.96275e-06 	0.00185343 24.9973 	0.00716414 	0.00348443 24.9973 	0.00722041 	0.0035118 24.9973 	0.00727713 	0.00353939 24.9973 	0.0073343 	0.00356719 24.9986 	-1.31095e-05 	0.00197743 24.9974 	0.0070164 	0.00363845 24.9974 	0.00707194 	0.00366725 24.9974 	0.00712792 	0.00369627 24.9974 	0.00718434 	0.00372553 24.9986 	-1.51772e-05 	0.0020347 24.9974 	0.00697009 	0.0037206 24.9974 	0.00702453 	0.00374966 24.9974 	0.00707938 	0.00377894 24.9974 	0.00713467 	0.00380845 24.9985 	-1.66871e-05 	0.0020767 24.9974 	0.00695175 	0.00377482 24.9974 	0.00700492 	0.00380369 24.9974 	0.00705849 	0.00383278 24.9973 	0.00711248 	0.00386209 24.9985 	-1.8118e-05 	0.00211329 24.9974 	0.00694984 	0.00381011 24.9974 	0.00700167 	0.00383852 24.9973 	0.00705388 	0.00386715 24.9973 	0.00710648 	0.00389598 24.9985 	-1.92917e-05 	0.00214531 24.9974 	0.00696001 	0.00383086 24.9973 	0.00701046 	0.00385862 24.9973 	0.00706128 	0.00388659 24.9973 	0.00711246 	0.00391477 24.9984 	-2.02033e-05 	0.00217356 24.9973 	0.00697759 	0.00384074 24.9973 	0.00702666 	0.00386774 24.9973 	0.00707607 	0.00389494 24.9973 	0.00712583 	0.00392233 24.9984 	-2.10167e-05 	0.00219954 24.9973 	0.00700156 	0.00384692 24.9973 	0.00704933 	0.00387317 24.9973 	0.00709742 	0.00389959 24.9973 	0.00714584 	0.00392619 24.9984 	-2.17499e-05 	0.00221787 24.9699 	0.00547208 	0.0421041 24.9416 	0.00439566 	0.0815358 24.9131 	0.00379952 	0.121163 24.8846 	0.00368714 	0.160988 24.8606 	0.00280349 	0.190809