# vtk DataFile Version 2.0
track0
ASCII
DATASET POLYDATA
POINTS 15210 float
-1.001 -0.05 0.0011
-1.00088 -0.05 0.0011
-1.00076 -0.05 0.00109999
-1.00064 -0.05 0.00109999
-1.00052 -0.05 0.00109999
-1.0004 -0.05 0.00109998
-0.975398 -0.05 0.00109925
-0.9504 -0.0499999 0.00109824
-0.925402 -0.0499999 0.00109723
-0.900404 -0.0499998 0.00109622
-0.875406 -0.0499998 0.00109522
-0.850407 -0.0499998 0.0010941
-0.825407 -0.0499996 0.00109261
-0.800408 -0.0499995 0.00109113
-0.775408 -0.0499993 0.00108966
-0.750409 -0.0499992 0.00108818
-0.737914 -0.049999 0.00108725
-0.72542 -0.0499989 0.00108572
-0.712925 -0.0499987 0.00108419
-0.700431 -0.0499985 0.00108267
-0.687936 -0.0499983 0.00108114
-0.675431 -0.0499983 0.00108007
-0.662926 -0.0499981 0.00107838
-0.65042 -0.0499979 0.0010767
-0.637915 -0.0499977 0.00107502
-0.62541 -0.0499975 0.00107334
-0.612898 -0.0499973 0.00107203
-0.600387 -0.049997 0.00107011
-0.587876 -0.0499967 0.00106819
-0.575365 -0.0499964 0.00106627
-0.562854 -0.0499961 0.00106436
-0.550338 -0.0499962 0.0010628
-0.537822 -0.0499958 0.00106064
-0.525307 -0.0499954 0.00105848
-0.512791 -0.0499951 0.00105633
-0.500275 -0.0499947 0.00105418
-0.487751 -0.0499943 0.0010524
-0.475226 -0.0499938 0.00105009
-0.462701 -0.0499933 0.00104779
-0.450177 -0.0499928 0.00104549
-0.437652 -0.0499923 0.00104319
-0.42513 -0.0499924 0.00104126
-0.412607 -0.0499917 0.00103882
-0.400084 -0.0499911 0.00103639
-0.387562 -0.0499904 0.00103396
-0.375039 -0.0499898 0.00103154
-0.362534 -0.049989 0.00102974
-0.350028 -0.0499882 0.0010281
-0.337522 -0.0499873 0.00102647
-0.325017 -0.0499865 0.00102484
-0.312511 -0.0499857 0.00102321
-0.306259 -0.0499852 0.00102246
-0.300007 -0.0499842 0.00102116
-0.293755 -0.0499833 0.00101985
-0.287503 -0.0499824 0.00101855
-0.281251 -0.0499814 0.00101725
-0.275 -0.0499802 0.00101661
-0.26875 -0.0499791 0.00101562
-0.2625 -0.0499779 0.00101463
-0.25625 -0.0499768 0.00101365
-0.25 -0.0499756 0.00101266
-0.24375 -0.049975 0.00101225
-0.2375 -0.0499737 0.00101153
-0.23125 -0.0499723 0.00101082
-0.225 -0.0499709 0.0010101
-0.21875 -0.0499695 0.00100939
-0.2125 -0.0499679 0.00100924
-0.20625 -0.0499662 0.00100887
-0.2 -0.0499646 0.00100849
-0.19375 -0.0499629 0.00100812
-0.1875 -0.0499612 0.00100775
-0.18125 -0.0499605 0.00100797
-0.175 -0.0499585 0.00100806
-0.16875 -0.0499565 0.00100814
-0.1625 -0.0499545 0.00100822
-0.15625 -0.0499526 0.00100831
-0.153125 -0.0499514 0.00100848
-0.15 -0.0499492 0.00100876
-0.146875 -0.0499469 0.00100903
-0.14375 -0.0499447 0.0010093
-0.140625 -0.0499424 0.00100957
-0.1375 -0.0499405 0.00100985
-0.134374 -0.0499379 0.00101033
-0.131249 -0.0499353 0.00101081
-0.128124 -0.0499328 0.00101128
-0.124999 -0.0499302 0.00101176
-0.121874 -0.0499288 0.00101216
-0.118749 -0.0499259 0.00101281
-0.115624 -0.0499231 0.00101346
-0.112499 -0.0499202 0.00101411
-0.109374 -0.0499173 0.00101475
-0.106249 -0.0499152 0.00101529
-0.103124 -0.0499121 0.00101607
-0.0999989 -0.049909 0.00101684
-0.0968739 -0.0499059 0.00101762
-0.0937488 -0.0499027 0.0010184
-0.0906239 -0.0499011 0.00101903
-0.0874989 -0.0498978 0.00101992
-0.0843739 -0.0498945 0.00102081
-0.0812489 -0.0498912 0.00102171
-0.0781239 -0.0498878 0.0010226
-0.0749989 -0.0498854 0.00102336
-0.0718739 -0.0498818 0.00102436
-0.0687489 -0.0498783 0.00102536
-0.0656238 -0.0498747 0.00102636
-0.0624988 -0.0498712 0.00102737
-0.0593738 -0.0498694 0.00102821
-0.0562488 -0.0498656 0.00102932
-0.0531238 -0.0498618 0.00103043
-0.0499988 -0.0498581 0.00103154
-0.0468738 -0.0498543 0.00103266
-0.0437488 -0.0498516 0.00103362
-0.0406238 -0.0498476 0.00103483
-0.0374988 -0.0498436 0.00103605
-0.0343738 -0.0498396 0.00103727
-0.0312488 -0.0498356 0.00103849
-0.0281239 -0.0498336 0.00103953
-0.0249989 -0.0498294 0.00104085
-0.0218739 -0.0498251 0.00104217
-0.018749 -0.0498209 0.00104349
-0.015624 -0.0498166 0.00104481
-0.012499 -0.0498137 0.00104597
-0.00937393 -0.0498093 0.00104738
-0.00624889 -0.0498048 0.0010488
-0.00312386 -0.0498003 0.00105022
1.18311e-06 -0.0497959 0.00105164
0.00312621 -0.0497937 0.00105288
0.00625124 -0.049789 0.00105439
0.00937627 -0.0497843 0.0010559
0.0125013 -0.0497796 0.00105741
0.0156263 -0.0497749 0.00105893
0.0187516 -0.0497718 0.00106027
0.0218768 -0.0497669 0.00106187
0.025002 -0.0497619 0.00106348
0.0281273 -0.049757 0.00106508
0.0312525 -0.0497521 0.00106669
0.0343793 -0.0497498 0.00106811
0.037506 -0.0497446 0.00106981
0.0406327 -0.0497395 0.0010715
0.0437595 -0.0497343 0.00107319
0.0468862 -0.0497292 0.00107489
0.050011 -0.0497257 0.00107641
0.0531358 -0.0497204 0.00107818
0.0562606 -0.049715 0.00107996
0.0593853 -0.0497097 0.00108174
0.0625101 -0.0497043 0.00108353
0.065635 -0.0497018 0.00108512
0.0687598 -0.0496962 0.00108697
0.0718846 -0.0496906 0.00108883
0.0750094 -0.049685 0.00109069
0.0781342 -0.0496794 0.00109256
0.0812601 -0.0496757 0.00109423
0.084386 -0.0496699 0.00109617
0.0875119 -0.0496641 0.00109811
0.0906377 -0.0496583 0.00110005
0.0937636 -0.0496525 0.00110199
0.0968915 -0.0496498 0.00110373
0.100019 -0.0496438 0.00110574
0.103147 -0.0496378 0.00110776
0.106275 -0.0496317 0.00110978
0.109403 -0.0496257 0.0011118
0.112529 -0.0496217 0.00111361
0.115655 -0.0496155 0.00111569
0.118781 -0.0496093 0.00111777
0.121907 -0.049603 0.00111986
0.125032 -0.0495968 0.00112195
0.128157 -0.0495939 0.00112383
0.131283 -0.0495875 0.00112597
0.134408 -0.0495811 0.00112812
0.137533 -0.0495746 0.00113027
0.140658 -0.0495681 0.00113242
0.143784 -0.049564 0.00113436
0.146909 -0.0495573 0.00113656
0.150035 -0.0495507 0.00113877
0.153161 -0.049544 0.00114098
0.156287 -0.0495374 0.0011432
0.159413 -0.0495343 0.00114519
0.16254 -0.0495275 0.00114746
0.165667 -0.0495206 0.00114972
0.168794 -0.0495138 0.00115199
0.171921 -0.0495069 0.00115427
0.175047 -0.0495025 0.00115631
0.178172 -0.0494954 0.00115862
0.181298 -0.0494884 0.00116094
0.184424 -0.0494813 0.00116326
0.18755 -0.0494742 0.00116559
0.190674 -0.049471 0.00116768
0.193799 -0.0494638 0.00117004
0.196923 -0.0494566 0.0011724
0.200048 -0.0494493 0.00117477
0.203172 -0.049442 0.00117714
0.206296 -0.0494374 0.00117927
0.209421 -0.04943 0.00118167
0.212545 -0.0494226 0.00118407
0.215669 -0.0494151 0.00118648
0.218794 -0.0494077 0.00118889
0.221919 -0.0494044 0.00119106
0.225045 -0.0493968 0.0011935
0.22817 -0.0493892 0.00119594
0.231296 -0.0493816 0.00119839
0.234421 -0.0493739 0.00120084
0.237548 -0.0493691 0.00120303
0.240674 -0.0493613 0.00120551
0.2438 -0.0493536 0.00120798
0.246927 -0.0493458 0.00121047
0.250053 -0.049338 0.00121295
0.25318 -0.0493345 0.00121518
0.256307 -0.0493266 0.00121769
0.259434 -0.0493186 0.0012202
0.262561 -0.0493107 0.00122271
0.265688 -0.0493027 0.00122523
0.268813 -0.0492977 0.00122747
0.271938 -0.0492896 0.00123
0.275062 -0.0492815 0.00123253
0.278187 -0.0492734 0.00123507
0.281312 -0.0492653 0.00123761
0.284435 -0.0492616 0.00123989
0.287558 -0.0492534 0.00124243
0.290681 -0.0492452 0.00124498
0.293804 -0.049237 0.00124754
0.296927 -0.0492287 0.0012501
0.30005 -0.0492235 0.00125237
0.303174 -0.0492152 0.00125493
0.306297 -0.0492068 0.0012575
0.309421 -0.0491984 0.00126007
0.312544 -0.04919 0.00126264
0.315668 -0.0491863 0.00126494
0.318793 -0.0491779 0.00126751
0.321917 -0.0491694 0.00127009
0.325041 -0.0491609 0.00127267
0.328166 -0.0491523 0.00127526
0.331291 -0.049147 0.00127755
0.334416 -0.0491384 0.00128013
0.337541 -0.0491298 0.00128272
0.340666 -0.0491212 0.00128531
0.343791 -0.0491125 0.0012879
0.346916 -0.0491087 0.00129022
0.350042 -0.0491 0.00129281
0.353168 -0.0490913 0.0012954
0.356294 -0.0490825 0.001298
0.35942 -0.0490738 0.0013006
0.362549 -0.0490683 0.0013029
0.365679 -0.0490595 0.00130549
0.368808 -0.0490506 0.00130809
0.371938 -0.0490418 0.00131069
0.375068 -0.0490329 0.0013133
0.378205 -0.049029 0.00131563
0.381343 -0.04902 0.00131823
0.384481 -0.0490111 0.00132083
0.387619 -0.0490021 0.00132344
0.390756 -0.0489931 0.00132605
0.393889 -0.0489875 0.00132836
0.397022 -0.0489785 0.00133095
0.400155 -0.0489695 0.00133354
0.403288 -0.0489604 0.00133614
0.406421 -0.0489514 0.00133875
0.409551 -0.0489474 0.00134106
0.412682 -0.0489383 0.00134364
0.415813 -0.0489292 0.00134623
0.418943 -0.0489201 0.00134882
0.422074 -0.048911 0.00135142
0.425204 -0.0489053 0.0013537
0.428334 -0.0488961 0.00135628
0.431464 -0.0488869 0.00135886
0.434594 -0.0488778 0.00136144
0.437724 -0.0488685 0.00136403
0.440854 -0.0488645 0.00136633
0.443984 -0.0488553 0.00136889
0.447114 -0.048846 0.00137146
0.450244 -0.0488367 0.00137404
0.453374 -0.0488275 0.00137662
0.456504 -0.0488217 0.00137888
0.459634 -0.0488124 0.00138143
0.462763 -0.0488031 0.00138399
0.465893 -0.0487938 0.00138655
0.469023 -0.0487844 0.00138912
0.472152 -0.0487803 0.00139139
0.475282 -0.048771 0.00139393
0.478411 -0.0487616 0.00139647
0.481541 -0.0487522 0.00139902
0.48467 -0.0487428 0.00140158
0.4878 -0.048737 0.00140381
0.490929 -0.0487276 0.00140633
0.494058 -0.0487182 0.00140886
0.497187 -0.0487088 0.00141139
0.500317 -0.0486993 0.00141393
0.503446 -0.0486952 0.00141616
0.506575 -0.0486857 0.00141867
0.509704 -0.0486763 0.00142118
0.512833 -0.0486668 0.00142369
0.515962 -0.0486573 0.00142621
0.519091 -0.0486514 0.00142841
0.52222 -0.048642 0.00143089
0.525348 -0.0486325 0.00143338
0.528477 -0.048623 0.00143588
0.531606 -0.0486134 0.00143838
0.534734 -0.0486093 0.00144057
0.537863 -0.0485998 0.00144304
0.540992 -0.0485902 0.00144551
0.54412 -0.0485807 0.00144798
0.547249 -0.0485712 0.00145046
0.550377 -0.0485652 0.00145261
0.553506 -0.0485557 0.00145506
0.556634 -0.0485462 0.0014575
0.559762 -0.0485366 0.00145995
0.562891 -0.0485271 0.00146241
0.566019 -0.0485229 0.00146456
0.569147 -0.0485133 0.00146698
0.572275 -0.0485038 0.0014694
0.575403 -0.0484942 0.00147183
0.578532 -0.0484846 0.00147426
0.58166 -0.0484787 0.00147637
0.584788 -0.0484691 0.00147876
0.587915 -0.0484596 0.00148116
0.591043 -0.04845 0.00148356
0.594171 -0.0484404 0.00148597
0.597299 -0.0484362 0.00148808
0.600427 -0.0484267 0.00149045
0.603555 -0.0484171 0.00149283
[...]
POINT_DATA 15210
 FIELD attributes 2
p 1 15210 float
-4.95317 -4.95475 -4.95632 -4.95789 -4.95946 -4.96103 -5.47394 -5.9861 -6.50872 -7.03135 -7.55097 -8.4438 -9.34156 -10.2393 -11.1351 -11.9887 -12.5651 -13.1549 -13.7447 -14.3346 -14.9925 -15.8244 -16.6481 -17.4718 -18.2956 -19.116 -20.0714 -21.0243 -21.9773 -22.9302 -23.8891 -25.0547 -26.2113 -27.3679 -28.5246 -29.684 -31.0835 -32.4827 -33.8819 -35.2811 -36.6965 -38.3545 -40.0035 -41.6524 -43.3014 -44.9615 -46.7901 -48.6196 -50.4492 -52.2788 -54.4149 -55.2394 -56.0986 -57.0609 -58.0232 -59.0035 -59.9014 -60.7972 -61.6931 -62.6017 -63.5069 -64.2545 -65.0035 -65.7412 -66.4788 -67.2196 -67.8514 -68.4911 -69.1308 -69.7771 -70.4324 -70.9655 -71.4992 -72.0142 -72.5185 -72.9841 -73.0854 -73.243 -73.4006 -73.5582 -73.7798 -73.9226 -74.0771 -74.2317 -74.3863 -74.569 -74.6667 -74.7747 -74.8827 -74.9906 -75.1229 -75.1838 -75.2449 -75.3061 -75.3672 -75.4336 -75.4459 -75.4605 -75.4751 -75.4897 -75.5083 -75.4768 -75.4449 -75.413 -75.3811 -75.3502 -75.2732 -75.1962 -75.1193 -75.0423 -74.9664 -74.8483 -74.7284 -74.6085 -74.4885 -74.3679 -74.2083 -74.0476 -73.8869 -73.7262 -73.5654 -73.3689 -73.1695 -72.97 -72.7706 -72.5696 -72.3355 -72.0995 -71.8634 -71.6274 -71.3909 -71.1243 -70.8541 -70.5839 -70.3137 -70.0416 -69.742 -69.4403 -69.1385 -68.8368 -68.5345 -68.2083 -67.8783 -67.5482 -67.2181 -66.8862 -66.533 -66.1777 -65.8224 -65.4671 -65.1114 -64.7377 -64.36 -63.9823 -63.6046 -63.225 -62.8302 -62.4332 -62.0362 -61.6392 -61.2419 -60.8332 -60.4204 -60.0076 -59.5948 -59.1801 -58.7565 -58.3306 -57.9047 -57.4788 -57.0526 -56.6202 -56.1838 -55.7473 -55.3109 -54.8726 -54.4305 -53.9861 -53.5418 -53.0975 -52.6529 -52.2075 -51.7582 -51.3089 -50.8596 -50.4088 -49.9594 -49.5078 -49.0563 -48.6048 -48.1531 -47.7053 -47.2537 -46.8022 -46.3507 -45.8977 -45.4501 -45.0005 -44.5509 -44.1013 -43.6515 -43.2091 -42.7633 -42.3175 -41.8716 -41.4244 -40.986 -40.5457 -40.1054 -39.665 -39.2245 -38.7945 -38.3614 -37.9283 -37.4952 -37.0609 -36.6381 -36.2135 -35.7889 -35.3643 -34.9394 -34.5272 -34.1121 -33.6971 -33.282 -32.8656 -32.4628 -32.0581 -31.6534 -31.2488 -30.8436 -30.4529 -30.0596 -29.6663 -29.273 -28.8785 -28.499 -28.1179 -27.7367 -27.3555 -26.9737 -26.6075 -26.2388 -25.8702 -25.5015 -25.1318 -24.7776 -24.4217 -24.0658 -23.7099 -23.3533 -23.0134 -22.6712 -22.3291 -21.987 -21.6436 -21.3171 -20.989 -20.6608 -20.3327 -20.0037 -19.6917 -19.3775 -19.0633 -18.7492 -18.4338 -18.1352 -17.835 -17.5347 -17.2344 -16.9332 -16.6489 -16.3625 -16.0761 -15.7897 -15.5021 -15.2312 -14.9586 -14.686 -14.4134 -14.1397 -13.8826 -13.6236 -13.3646 -13.1055 -12.8452 -12.6012 -12.3555 -12.1098 -11.8641 -11.6172 -11.3863 -11.1536 -10.9208 -10.688 -10.4539 -10.2354 -10.015 -9.79473 -9.57441 -9.35275 -9.14627 -8.93765 -8.72903 -8.52041 -8.3102 -8.11437 -7.91617 -7.71797 -7.51977 -7.31995 -7.13415 -6.94535 -6.75655 -6.56775 -6.37716 -6.2009 -6.0246 -5.8483 -5.67201 -5.49605 -5.33352 -5.17202 -5.01052 -4.84901 -4.68844 -4.53858 -4.38856 -4.23854 -4.08852 -3.9385 -3.79787 -3.65601 -3.51414 -3.37228 -3.22972 -3.0973 -2.9656 -2.8339 -2.7022 -2.57132 -2.45167 -2.33399 -2.21632 -2.09864 -1.982 -1.87519 -1.76636 -1.65752 -1.54869 -1.43716 -1.33441 -1.22855 -1.12268 -1.01681 -0.90792 -0.809196 -0.708277 -0.607357 -0.506436 -0.403632 -0.311565 -0.217904 -0.124243 -0.0305817 0.0643503 0.149269 0.235507 0.321745 0.407982 0.495357 0.573524 0.652924 0.732324 0.811725 0.892206 0.964241 1.03733 1.11042 1.18351 1.2576 1.32387 1.39119 1.4585 1.52582 1.59417 1.65523 1.71723 1.77923 1.84124 1.90417 1.96024 2.01723 2.07422 2.13121 2.18911 2.24053 2.29278 2.34502 2.39727 2.45029 2.49723 2.545 2.59276 2.64053 2.6891 2.73188 2.77536 2.81883 2.8623 2.90642 2.94503 2.98428 3.02354 3.06279 3.1027 3.13727 3.17233 3.20739 3.24244 3.27803 3.30855 3.33959 3.37064 3.40168 3.43328 3.46023 3.48767 3.51511 3.54255 3.5706 3.59399 3.61721 3.64043 3.66365 3.68702 3.70583 3.72517 3.74451 3.76385 3.78518 3.80319 3.82212 3.84104 3.85996 3.87874 3.90682 3.94631 3.98432 4.02127 4.05661 4.08079 4.1064 4.13073 4.15349 4.17813 4.19083 4.20239 4.2149 4.22825 4.24317 4.25595 4.27759 4.2983 4.318 4.3461 4.37579 4.42289 4.47651 4.53012 4.5753 4.5992 4.62123 4.64406 4.66688 4.68486 4.69759 4.70609 4.71459 4.72245 4.72418 4.71223 4.69786 4.684 4.67014 4.65185 4.61367 4.57146 4.52926 4.48543 4.43441 4.38308 4.34825 4.31659 4.28493 4.25875 4.08709 4.08071 4.07309 4.06547 4.05176 4.06494 4.06644 4.06793 4.07162 4.06325 3.99855 3.91467 3.79426 3.67384 3.54163 3.30654 3.06574 2.82495 2.6473 2.47455 2.2803 2.10829 1.93628 1.7236 1.64654 1.81912 1.98729 2.15545 2.32362 2.30751 2.2309 2.1487 2.0665 1.98431 1.89319 1.59034 1.29269 0.995043 0.697398 0.494391 0.279276 0.085741 -0.107796 -0.301335 -0.387719 -0.211816 -0.031782 0.148249 0.328278 0.443249 0.604557 0.771633 0.938709 1.10578 1.26291 1.36178 1.4477 1.53362 1.61955 1.69577 1.64278 1.57801 1.51323 1.44846 1.31091 1.17108 1.02192 0.872763 0.723608 0.595025 0.514257 0.429056 0.343856 0.258655 0.187236 0.173923 0.157953 0.141984 0.126016 0.113352 0.113011 0.110545 0.108078 0.105612 0.104012 0.101487 0.0972743 0.0930615 0.0888488 0.0853822 0.0832348 0.0797819 0.0763291 0.0728764 0.0699316 0.0689494 0.0668956 0.0648419 0.0627883 0.0610639 0.0614336 0.0609574 0.0604812 0.0600051 0.0598938 0.0546214 0.0485077 0.042425 0.0363739 0.0313114
-4.76463 -4.76619 -4.76774 -4.7693 -4.77085 -4.77241 -5.30141 -5.8304 -6.34578 -6.80025 -7.2547 -8.04019 -8.8258 -9.65844 -10.935 -12.1721 -12.639 -13.1404 -13.6418 -14.1431 -14.8045 -15.6361 -16.4357 -17.2352 -18.0348 -18.826 -19.8021 -20.755 -21.708 -22.661 -23.5984 -24.7563 -25.9322 -27.108 -28.2839 -29.4734 -30.8849 -32.3337 -33.7825 -35.2313 -36.6887 -38.3115 -40.0393 -41.7671 -43.4953 -45.2748 -47.1102 -49.1241 -51.1381 -53.1701 -55.6426 -56.5253 -57.4072 -58.4247 -59.3538 -60.269 -61.2822 -62.286 -63.2057 -64.02 -64.8217 -65.6493 -66.4756 -67.2767 -68.0178 -68.7535 -69.4516 -70.1491 -70.8388 -71.483 -72.1227 -72.682 -73.2401 -73.7789 -74.3421 -74.9128 -75.032 -75.1871 -75.3383 -75.4894 -75.6988 -75.8358 -75.9844 -76.1331 -76.2894 -76.4773 -76.5877 -76.6963 -76.799 -76.9017 -77.0168 -77.0721 -77.1297 -77.1874 -77.2479 -77.3153 -77.3258 -77.3386 -77.3508 -77.3631 -77.3792 -77.3447 -77.3123 -77.2799 -77.2475 -77.2166 -77.1345 -77.0542 -76.9751 -76.8961 -76.8184 -76.6933 -76.5699 -76.4467 -76.3208 -76.1945 -76.0235 -75.8545 -75.6894 -75.5243 -75.3598 -75.1537 -74.9488 -74.744 -74.5335 -74.3221 -74.0709 -73.821 -73.5781 -73.3353 -73.0926 -72.8172 -72.5423 -72.2675 -71.9839 -71.7179 -71.7109 -71.704 -71.697 -71.6901 -71.6831 -71.3613 -71.0395 -70.728 -70.4168 -70.1057 -69.7649 -69.4251 -69.0838 -68.7329 -68.3836 -68.0058 -67.6288 -67.2605 -66.8948 -66.5298 -66.1388 -65.7508 -65.3585 -64.9584 -64.5619 -64.1408 -63.7215 -63.3082 -62.9005 -62.4942 -62.0652 -61.6414 -61.2102 -60.7744 -60.3446 -59.8929 -59.4444 -58.9986 -58.5615 -58.1269 -57.6712 -57.2236 -56.7656 -56.3062 -55.8558 -55.3841 -54.9174 -54.4508 -53.9948 -53.5435 -53.0715 -52.6091 -52.1373 -51.6655 -51.2061 -50.7255 -50.2528 -49.7801 -49.3137 -48.858 -48.3809 -47.9142 -47.442 -46.9699 -46.5136 -46.0346 -45.566 -45.0973 -44.6313 -44.1811 -43.7077 -43.2452 -42.7807 -42.3163 -41.8707 -41.4 -40.9422 -40.4843 -40.0265 -39.5882 -39.1251 -38.6757 -38.2264 -37.7771 -37.3439 -36.8921 -36.4521 -36.0121 -35.5719 -35.1432 -34.7036 -34.2736 -33.8438 -33.414 -32.9928 -32.5679 -32.1498 -31.7316 -31.3131 -30.8982 -30.4874 -30.0813 -29.6756 -29.2699 -28.865 -28.7743 -28.6842 -28.5942 -28.5041 -28.4142 -28.111 -27.8078 -27.5046 -27.2005 -26.8966 -26.5137 -26.1329 -25.7527 -25.3725 -24.993 -24.624 -24.2581 -23.8922 -23.5257 -23.1607 -22.8045 -22.4527 -22.1016 -21.7506 -21.4014 -21.0591 -20.7224 -20.3858 -20.0485 -19.7141 -19.385 -19.0623 -18.7402 -18.4181 -18.0991 -17.7844 -17.4762 -17.1687 -16.8614 -16.5571 -16.2576 -15.9624 -15.6697 -15.3784 -15.0891 -14.8045 -14.5232 -14.2451 -13.9686 -13.6938 -13.4242 -13.1562 -12.8924 -12.6312 -12.3709 -12.1153 -11.8604 -11.6104 -11.3635 -11.1168 -10.8754 -10.634 -10.3975 -10.1647 -9.93192 -9.70363 -9.47534 -9.25169 -9.0316 -8.8115 -8.5965 -8.38149 -8.17046 -7.96333 -7.75621 -7.55324 -7.35027 -7.15141 -6.95634 -6.76128 -6.57095 -6.38062 -6.19413 -6.01163 -5.82914 -5.65037 -5.4716 -5.29704 -5.12609 -4.95514 -4.78871 -4.62278 -4.45994 -4.30007 -4.14088 -3.98518 -3.83061 -3.67877 -3.52887 -3.38 -3.23542 -3.09231 -2.95083 -2.81082 -2.67257 -2.5373 -2.40421 -2.2724 -2.14135 -2.01212 -1.88653 -1.76318 -1.64044 -1.51807 -1.3983 -1.28058 -1.16631 -1.05216 -0.937908 -0.826037 -0.71715 -0.611144 -0.505222 -0.399323 -0.295809 -0.194864 -0.0968812 0.00110358 0.0991083 0.195546 0.287878 0.378249 0.468607 0.558962 0.648036 0.732798 0.816011 0.899225 0.9825 1.0652 1.14275 1.21959 1.29627 1.37296 1.4494 1.49417 1.53861 1.58304 1.62748 1.67235 1.69884 1.72532 1.75181 1.7783 1.80425 1.87076 1.93679 2.00251 2.06823 2.13214 2.19421 2.25468 2.31514 2.37588 2.43322 2.49168 2.54723 2.60257 2.65791 2.70884 2.76308 2.81351 2.86394 2.91449 2.95892 3.01002 3.05582 3.10153 3.14724 3.186 3.23307 3.2744 3.31571 3.35713 3.39014 3.43467 3.47212 3.50943 3.54604 3.5752 3.61538 3.65001 3.68364 3.71546 3.74079 3.77821 3.81078 3.84114 3.86861 3.8912 3.92498 3.95465 3.9816 4.00535 4.0243 4.05583 4.08227 4.10645 4.12821 4.14497 4.17388 4.19784 4.21969 4.23899 4.253 4.28402 4.30392 4.31938 4.33175 4.33339 4.36999 4.39698 4.42547 4.45774 4.48017 4.5147 4.54029 4.56588 4.59189 4.61317 4.64332 4.6644 4.68414 4.70389 4.71986 4.7364 4.74818 4.75997 4.77175 4.78544 4.81191 4.83838 4.84189 4.80606 4.77023 4.86019 4.95015 4.97338 4.93067 4.88796 4.95942 5.03089 5.03678 4.9748 4.91281 4.97674 5.04067 5.02924 4.94247 4.8557 4.89228 4.92888 4.89814 4.79774 4.69734 4.76662 4.8359 4.79153 4.64139 4.49125 4.39965 4.32322 4.26602 4.20883 4.12781 4.26224 4.27532 4.28822 4.30113 4.18447 4.23353 4.12306 4.01259 3.90855 3.70895 3.54943 3.361 3.16273 2.96445 2.75879 2.31388 1.90807 1.55234 1.34871 1.32619 1.5399 1.70336 1.97133 2.3722 2.60519 2.73191 2.7592 2.74351 2.66686 2.50849 2.16959 1.87881 1.59117 1.30454 1.07528 0.714011 0.537027 -0.0193644 -0.504697 -0.614066 -0.466676 -0.288944 -0.111241 0.0338189 0.12656 0.202011 0.248449 0.407428 0.566367 0.673676 0.819959 0.897156 0.974315 1.05759 1.08314 1.05878 0.981661 0.90432 0.995074 1.05543 1.07152 0.921679 0.77152 0.62136 0.45311 0.452908 0.369084 0.283387 0.197689 0.106081 0.12448 0.109488 0.0931601 0.0768311 0.055212 0.0734656 0.071825 0.0690775 0.0663295 0.0589948 0.0702195 0.0668961 0.0624707 0.058045 0.0502995 0.0576941 0.055037 0.0514207 0.0478042 0.0417996 0.0480033 0.046696 0.0445138 0.0423314 0.0383216 0.0446393 0.0449421 0.0443687 0.0437951 0.0419428 0.0481806 0.0441057 0.0379109 0.0317063 0.0247192
-4.57212 -4.57362 -4.57512 -4.57662 -4.57812 -4.57962 -5.09434 -5.56775 -6.04122 -6.51272 -6.97161 -7.78046 -8.66277 -9.5451 -10.37 -11.5106 -12.0153 -12.5332 -13.0512 -13.5608 -14.1586 -14.9714 -15.7524 -16.5062 -17.2601 -18.0065 -18.9786 -19.9272 -20.8758 -21.8286 -22.7692 -23.9652 -25.1557 -26.374 -27.5923 -28.8029 -30.2953 -31.8679 -33.4406 -34.9184 -36.4606 -38.2785 -40.0483 -42.0017 -43.9534 -45.8352 -47.8967 -50.1944 -52.4997 -54.7921 -57.5802 -58.4817 -59.4214 -60.3567 -61.2494 -62.4479 -63.5766 -64.6224 -65.6474 -66.6755 -67.7608 -68.7573 -69.6699 -70.5789 -71.5014 -72.5016 -73.3542 -74.1467 -74.9315 -75.7189 -76.5694 -77.2694 -77.8843 -78.4996 -79.2581 -79.965 -80.1144 -80.3026 -80.4887 -80.6702 -80.9043 -81.0703 -81.2589 -81.4421 -81.6221 -81.8261 -81.9564 -82.0896 -82.2274 -82.3706 -82.5172 -82.6019 -82.688 -82.7713 -82.8516 -82.9348 -82.9529 -82.9734 -82.9955 -83.0189 -83.0437 -83.0155 -82.987 -82.9594 -82.9331 -82.9079 -82.8244 -82.7431 -82.6568 -82.5692 -82.483 -82.3415 -82.1994 -82.0582 -81.9266 -81.7956 -81.6149 -81.436 -81.2447 -81.0538 -80.8644 -80.6247 -80.384 -80.1436 -79.9176 -79.6957 -79.4305 -79.1604 -78.8792 -78.5983 -78.318 -78.1523 -77.9865 -77.8208 -77.6552 -77.4951 -77.3375 -77.18 -77.0284 -76.8784 -76.7283 -76.3893 -76.0346 -75.6741 -75.3137 -74.9549 -74.5625 -74.1701 -73.778 -73.386 -73.0125 -72.6076 -72.1859 -71.7644 -71.3431 -70.9256 -70.4814 -70.0373 -69.5933 -69.1495 -68.7126 -68.2502 -67.7855 -67.3217 -66.858 -66.3961 -66.2415 -66.0868 -65.9321 -65.7775 -65.6268 -65.3015 -64.9763 -64.6511 -64.326 -64.0004 -63.5024 -63.0103 -62.5183 -62.0263 -61.5336 -61.021 -60.5198 -60.0187 -59.5177 -59.0089 -58.4778 -57.9681 -57.4585 -56.949 -56.4391 -55.9117 -55.3997 -54.8877 -54.3672 -53.8454 -53.3062 -52.781 -52.2674 -51.7539 -51.2408 -50.7119 -50.2011 -49.6903 -49.1574 -48.6426 -48.1115 -47.5852 -47.0743 -46.5676 -46.0624 -45.5434 -45.0445 -44.5337 -44.0133 -43.514 -42.9997 -42.4899 -41.9814 -41.4893 -40.9983 -40.4941 -40.0069 -39.5054 -39.0056 -38.5251 -38.0309 -37.5421 -37.0539 -36.5711 -36.1016 -35.6207 -35.1452 -34.6708 -34.1965 -33.739 -33.2726 -32.8128 -32.353 -31.8925 -31.4406 -30.9912 -30.5456 -30.1007 -29.6558 -29.2126 -29.11 -29.0083 -28.9065 -28.8047 -28.7031 -28.3747 -28.0462 -27.7177 -27.3878 -27.0599 -26.6397 -26.2255 -25.8122 -25.3989 -24.9893 -24.5811 -24.185 -23.7888 -23.3917 -23.0019 -22.6065 -22.2242 -21.845 -21.468 -21.0952 -20.7178 -20.3469 -19.9846 -19.6274 -19.2723 -18.9126 -18.5546 -18.21 -17.871 -17.5333 -17.1915 -16.8517 -16.5217 -16.1998 -15.8796 -15.5553 -15.2316 -14.9169 -14.6137 -14.311 -14.0041 -13.6984 -13.401 -13.1121 -12.8261 -12.5363 -12.2512 -11.9708 -11.6933 -11.4238 -11.1501 -10.884 -10.6198 -10.3557 -10.1008 -9.84528 -9.59706 -9.34865 -9.09964 -8.85596 -8.61835 -8.38461 -8.15139 -7.91838 -7.68617 -7.64024 -7.59499 -7.54974 -7.50449 -7.45915 -7.28463 -7.11011 -6.93509 -6.76005 -6.58786 -6.37842 -6.17195 -5.96581 -5.75991 -5.56046 -5.3612 -5.16896 -4.97647 -4.78373 -4.60065 -4.41285 -4.23218 -4.05279 -3.87692 -3.708 -3.53242 -3.36097 -3.19399 -3.03324 -2.87572 -2.71301 -2.55085 -2.39573 -2.25088 -2.10605 -1.95415 -1.8022 -1.65882 -1.52389 -1.38899 -1.24863 -1.10828 -0.976199 -0.852703 -0.729222 -0.598139 -0.467241 -0.346071 -0.23096 -0.116513 0.00383001 0.121105 0.232668 0.340462 0.444806 0.557034 0.662686 0.765196 0.866815 0.963273 1.06579 1.15966 1.25358 1.34749 1.43614 1.52837 1.61414 1.6999 1.78566 1.86915 1.95033 2.02863 2.10684 2.18503 2.26301 2.27001 2.27674 2.28347 2.2902 2.29693 2.36269 2.42844 2.49419 2.56009 2.62319 2.69165 2.75804 2.82425 2.89046 2.95187 3.0157 3.07604 3.13637 3.19688 3.24884 3.3097 3.36488 3.41957 3.4724 3.51919 3.57338 3.62473 3.67373 3.7187 3.75917 3.80938 3.85487 3.89861 3.93961 3.97607 4.02008 4.06089 4.09959 4.13428 4.16512 4.20571 4.24029 4.27369 4.30642 4.33409 4.36913 4.40074 4.42934 4.45636 4.47931 4.51176 4.53763 4.56213 4.58759 4.60805 4.63588 4.65891 4.67994 4.70057 4.71684 4.74272 4.7612 4.7792 4.79733 4.81115 4.83256 4.84741 4.86217 4.87693 4.88828 4.90602 4.91761 4.9292 4.94078 4.95061 4.96269 4.96975 4.97681 4.98386 4.99002 5.01386 5.03855 5.05436 5.06403 5.0712 5.09452 5.11266 5.12302 5.13239 5.13655 5.14676 5.14822 5.14967 5.15616 5.15875 5.16314 5.16183 5.15743 5.15303 5.14477 5.11815 5.05524 5.02353 5.01582 4.99982 5.03054 5.04174 5.05146 5.05959 5.06509 5.06731 5.06598 5.06465 5.06332 5.06199 5.06239 5.06279 5.06555 5.06841 5.04549 5.04889 5.03107 5.0109 4.9889 4.91944 4.91803 4.87663 4.83819 4.80422 4.69361 4.70458 4.67019 4.62431 4.565 4.43197 4.29761 4.23311 4.16696 4.08362 3.91804 4.2419 4.32001 4.36228 4.36948 4.16402 4.33268 4.23676 4.10949 3.96072 3.56111 3.60191 3.23963 2.87738 2.52172 2.09243 1.73828 1.5475 1.35675 1.16605 1.0433 1.0578 1.0655 1.0732 1.0809 1.12454 1.49213 1.85991 2.22789 2.59605 2.59525 3.21221 3.2957 3.33867 3.27884 2.59166 2.92644 2.60696 2.28779 1.96892 1.29757 0.501585 -0.203063 -0.45088 -0.697584 -0.828982 -0.68009 -0.523454 -0.403783 -0.284042 -0.191244 -0.13016 -0.143628 -0.157087 -0.108871 -0.00355026 0.127606 0.202904 0.280621 0.358878 0.3832 0.340698 0.432755 0.545105 0.659674 0.722364 0.735192 0.721386 0.586117 0.435164 0.267268 0.265523 0.253008 0.178795 0.0926459 0.000946015 0.0184496 0.029154 0.0182657 0.00162102 -0.0200089 -0.00240004 0.00989496 0.0108669 0.00787875 0.000551996 0.01131 0.018178 0.017102 0.0124923 0.00472916 0.011789 0.0160486 0.0151484 0.0113873 0.00534734 0.011302 0.0151184 0.0153005 0.0130039 0.00895488 0.0150909 0.0196896 0.0214173 0.0207558 0.0188615 0.0249657 0.029866 0.0292368 0.0230126 0.0160333