# vtk DataFile Version 2.0
sampleSurface
ASCII
DATASET POLYDATA
POINTS 9400 float
2.60369e-12 7.88861e-31 0 2.60369e-12 7.88861e-31 0.01875 -0.0625 0 0 0.0625 0
0 -0.0625 2.04574e-18 0.01875 0.0625 2.27264e-18 0.01875 2.45838e-12 -7.88861e-31 0.0805546
0.0625 0 0.080548 -0.0625 0 0.0805619 -0.125 0 0 0.125
0 0 -0.125 0 0.01875 0.125 0 0.01875 2.44092e-12 0
0.142361 0.125 -2.36236e-18 0.080537 -0.125 -1.99734e-18 0.0805727 0.155198 9.86076e-32 0
0.0625 2.25713e-18 0.142348 -0.0625 6.58074e-19 0.142376 0.155198 9.86076e-32 0.01875 -0.1875
0 0 0.1875 -1.97215e-31 0 0.17003 9.86076e-32 0.0805311 -0.1875 6.18262e-19
0.01875 0.1875 1.13376e-18 0.01875 0.125 0 0.142327 -0.125 -1.57772e-30 0.142397
0.1875 0 0.0805288 -0.1875 1.57772e-30 0.0805786 2.55289e-12 4.58002e-19 0.20417 0.0625
0 0.204149 -0.0625 0 0.204193 0.182675 -2.46519e-32 0.142311 0.1875 -2.46519e-32
0.14231 -0.1875 3.44655e-18 0.142409 0.125 1.8947e-18 0.20412 -0.125 8.62579e-19 0.204222
-0.25 0 0 0.25 0 0 -0.25 0 0.01875 0.25
0 0.01875 0.1875 0 0.171657 0.25 -1.85988e-18 0.0805215 -0.25 -7.89071e-19
0.0805852 2.80171e-12 0 0.265981 0.0625 -3.12196e-18 0.265952 -0.0625 0 0.266014
0.1875 0 0.204094 -0.1875 1.57772e-30 0.204241 0.192183 0 0.204092 0.25
0 0.142295 -0.25 0 0.142423 0.125 3.9443e-31 0.265926 -0.125 0
0.266049 -0.3125 1.57772e-30 0 0.3125 7.88861e-31 0 -0.3125 -2.90674e-18 0.01875
0.3125 -1.27488e-19 0.01875 0.3125 0 0.0805151 0.25 0 0.20407 -0.3125
0 0.0805924 -0.25 0 0.204262 0.1875 0 0.26588 -0.1875 5.62479e-19
0.266075 3.20058e-12 0 0.327795 0.199338 -9.86076e-32 0.265874 0.0625 0 0.327757
-0.0625 0 0.327848 0.3125 -2.71896e-18 0.142282 -0.3125 2.78209e-18 0.142437 0.125
6.9163e-19 0.327724 -0.125 2.08789e-18 0.327878 0.25 0 0.265848 -0.25 0
0.266105 0.3125 0 0.204049 -0.3125 0 0.204285 -0.375 0 0
0.375 0 0 -0.375 0 0.01875 0.375 0 0.01875 0.1875
0 0.32767 -0.1875 0 0.327912 0.375 -8.46552e-19 0.0805098 -0.375 -8.58061e-19
0.0806002 0.205871 0 0.327658 3.76968e-12 0 0.389612 0.0625 3.97291e-19 0.389565
-0.0625 2.2957e-18 0.389672 0.375 0 0.14227 -0.375 0 0.142454 0.125
0 0.389523 -0.125 0 0.389709 0.3125 0 0.265819 -0.3125 0
0.266137 0.25 -1.46378e-18 0.327628 -0.25 3.03983e-18 0.32795 0.375 0 0.204032
-0.375 2.41679e-18 0.20431 0.1875 -1.87127e-18 0.389464 -0.1875 3.73964e-19 0.389752 -0.4375
0 0 0.4375 0 0 -0.4375 1.89554e-18 0.01875 0.4375 -2.57557e-18
0.01875 0.213183 0 0.389442 0.4375 1.57772e-30 0.0805056 -0.4375 0 0.0806086
4.53883e-12 -3.03619e-18 0.451433 0.3125 0 0.32759 -0.3125 0 0.327991 0.0625
0 0.451375 -0.0625 1.57772e-30 0.451497 0.375 0 0.265795 -0.375 -1.57772e-30
0.266171 0.4375 3.41059e-18 0.142262 -0.4375 -9.03976e-19 0.142471 0.25 0 0.389411
-0.25 0 0.389799 0.125 -2.36403e-18 0.451324 -0.125 -5.90775e-19 0.451542 0.4375
0 0.204018 -0.4375 0 0.204337 0.1875 0 0.451262 -0.1875 0
0.451594 0.375 1.63705e-18 0.327558 -0.375 3.27259e-18 0.328036 0.3125 0 0.389363
-0.3125 -1.14983e-18 0.38985 -0.5 0 0 0.5 1.57772e-30 0 -0.5
0 0.01875 0.5 1.57772e-30 0.01875 0.222412 0 0.451226 0.5 2.84117e-18
0.0805025 -0.5 2.92717e-18 0.0806173 0.4375 -2.12621e-18 0.265775 -0.4375 -1.47432e-18 0.266207
5.55162e-12 1.57772e-30 0.513258 0.25 0 0.451197 -0.25 0 0.451651 0.0625
0 0.513189 -0.0625 4.3536e-19 0.513324 0.5 1.57772e-30 0.142255 -0.5 0
0.142489 0.125 0 0.513128 -0.125 0 0.513378 0.5 -1.57772e-30 0.204008
-0.5 3.15544e-30 0.204364 0.375 1.57772e-30 0.389324 -0.375 0 0.389905 0.1875
0 0.513077 0.4375 0 0.327533 -0.1875 0 0.51344 -0.4375 0
0.328082 0.3125 0 0.451139 -0.3125 3.15544e-30 0.451713 -0.5625 6.31089e-30 0
0.5625 3.15544e-30 0 -0.5625 -1.00175e-18 0.01875 0.5625 -2.39654e-18 0.01875 0.23435
0 0.513009 0.5 0 0.265761 -0.5 3.15544e-30 0.266245 0.5625 0
0.0805006 -0.5625 -6.31089e-30 0.0806264 0.25 0 0.512987 -0.25 0 0.513508
6.87235e-12 -3.15544e-30 0.5751 0.0625 0 0.575006 -0.0625 0 0.575154 0.5625
-3.18176e-18 0.142251 -0.5625 2.78172e-19 0.142507 0.4375 -3.799e-19 0.389292 -0.4375 4.15711e-19
0.389963 0.375 -3.25704e-18 0.451091 -0.375 -1.7012e-18 0.45178 0.125 3.22891e-18 0.574935
-0.125 2.76461e-18 0.575218 0.5 1.53587e-19 0.327515 -0.5 1.56796e-18 0.328131 0.5625
-3.15544e-30 0.204002 -0.5625 0 0.204393 0.3125 -3.04445e-18 0.512918 -0.3125 -1.22914e-18
0.513582 0.1875 -7.88861e-31 0.574873 -0.1875 3.15544e-30 0.57529 0.5625 0 0.265753
-0.5625 0 0.266284 -0.625 0 0 0.625 0 0 -0.625
0 0.01875 0.625 0 0.01875 0.249434 0 0.574782 0.25 -2.35481e-18
0.574782 -0.25 2.86973e-18 0.57537 0.25 0 0.576361 0.4375 0 0.451052
-0.4375 0 0.451849 0.625 -4.13928e-19 0.0805 -0.625 1.78069e-18 0.0806358 0.5
-3.15544e-30 0.389269 -0.5 0 0.390023 0.375 0 0.512859 -0.375 0
0.51366 8.59817e-12 0 0.636923 0.0625 -4.29693e-19 0.636828 -0.0625 2.53227e-18 0.636986
0.625 0 0.14225 -0.625 0 0.142527 0.125 0 0.636744 -0.125
0 0.63706 0.5625 0 0.327504 -0.5625 0 0.328182 0.3125 7.88861e-31
0.5747 -0.3125 0 0.575456 0.625 -2.48369e-18 0.204 -0.625 2.63567e-18 0.204423
0.1875 -2.99188e-18 0.636672 -0.1875 1.69459e-18 0.637144 0.5 -3.15544e-30 0.451023 -0.5
6.31089e-30 0.451922 0.4375 0 0.512812 -0.4375 0 0.513742 0.625 0
0.26575 -0.625 0 0.266325 0.25 0 0.636581 0.5625 -2.7276e-18 0.389255
-0.25 0 0.637237 -0.5625 -2.95645e-18 0.390085 0.375 -2.32583e-18 0.57463 -0.375
-1.63671e-19 0.575547 -0.6875 0 0 0.6875 0 0 -0.6875 7.54477e-19
0.01875 0.6875 2.80491e-18 0.01875 0.265822 0 0.636557 0.6875 0 0.0804911
-0.6875 2.52435e-29 0.0806455 1.08822e-11 3.25112e-18 0.698748 0.0625 -3.15544e-30 0.698655 -0.0625
0 0.698821 0.6875 0 0.142233 -0.6875 -5.02969e-19 0.142546 0.625 0
0.3275 -0.625 -2.67663e-18 0.32822 0.3125 2.79272e-18 0.636486 0.125 2.61292e-18 0.698557
-0.3125 -2.72054e-18 0.637337 -0.125 2.93961e-18 0.698907 0.5 -3.15544e-30 0.512778 -0.5
0 0.513828 0.6875 0 0.203976 -0.6875 0 0.204444 0.5625 0
0.451006 -0.5625 0 0.451996 0.4375 0 0.574574 -0.4375 0 0.575643
0.1875 0 0.698474 -0.1875 -6.31089e-30 0.699004 0.625 0 0.38925 -0.625
1.26218e-29 0.390123 0.6875 2.67855e-18 0.26572 -0.6875 3.2715e-19 0.266348 0.375 0
0.636404 -0.375 0 0.637442 0.25 -2.90235e-18 0.698407 -0.25 0 0.699111
-0.75 5.04871e-29 0 0.75 0 0 -0.75 5.04871e-29 0.01875 0.75
0 0.01875 0.75 0 0.0804865 -0.75 0 0.0806519 0.285281 3.9443e-31
0.698333 1.39788e-11 -6.31089e-30 0.760575 0.5625 -5.36693e-20 0.512757 0.6875 0 0.327466
0.5 -2.55668e-18 0.574533 -0.6875 0 0.328255 -0.5625 0 0.513884 -0.5
2.53415e-18 0.575741 0.0625 0 0.760507 -0.0625 -1.16387e-18 0.76066 0.75 0
0.142224 -0.75 0 0.142557 0.3125 0 0.698276 -0.3125 0 0.699225
0.125 0 0.760375 0.625 1.75231e-18 0.451 -0.125 -6.31089e-30 0.760759 -0.625
-3.24651e-18 0.45203 0.4375 -1.27166e-18 0.636338 -0.4375 -3.18222e-18 0.637551 0.75 -1.59252e-18
0.203961 -0.75 -3.38897e-18 0.204465 0.1875 -2.65116e-18 0.760279 -0.1875 0 0.76087
0.6875 4.68344e-19 0.389213 -0.6875 1.91147e-18 0.390167 0.375 0 0.698181 -0.375
1.91584e-18 0.699345 0.75 0 0.2657 -0.75 -5.04871e-29 0.266377 0.25 1.57772e-30
0.760201 -0.25 6.31089e-30 0.760991 0.5625 0 0.574508 -0.5625 0 0.57579
0.625 0 0.51275 -0.625 0 0.513942 0.5 0 0.63629 -0.5
0 0.637631 -0.8125 0 0 0.8125 -3.15544e-30 0 -0.8125 -2.65391e-19
0.01875 0.8125 -2.54486e-18 0.01875 0.8125 -3.15544e-30 0.0804832 -0.8125 0 0.080659
0.75 0 0.327439 -0.75 0 0.328293 0.308355 0 0.760081 0.3125
0 0.760072 0.6875 6.31089e-30 0.450962 1.8335e-11 -6.31089e-30 0.822406 -0.3125 -2.82488e-18
0.761121 -0.6875 0 0.452083 0.4375 0 0.698104 0.0625 6.31089e-30 0.822327
0.8125 2.65865e-18 0.142217 -0.0625 -6.31089e-30 0.822503 -0.8125 -1.243e-18 0.142571 -0.4375
0 0.699469 0.3125 -9.86076e-32 0.768058 0.125 -2.30523e-18 0.822198 -0.125 2.23709e-18
0.822616 0.8125 0 0.20395 -0.8125 1.00974e-28 0.204487 0.1875 3.15544e-30 0.822087
-0.1875 0 0.822743 0.75 0 0.389179 -0.75 0 0.390213 0.375
-1.57772e-30 0.759961 -0.375 0 0.761257 0.625 -3.56137e-19 0.5745 0.5625 5.79545e-20
0.63626 -0.625 3.27226e-18 0.575858 -0.5625 2.77466e-18 0.637702 0.8125 0 0.265684
-0.8125 0 0.266417 0.6875 0 0.512713 -0.6875 8.28782e-19 0.514003 0.5
0 0.698047 0.25 0 0.821997 -0.5 6.31089e-30 0.699537 -0.25 -1.344e-19
0.822881 -0.875 0 0 0.875 0 0 0.75 -2.10549e-18 0.45092
-0.875 0 0.01875 0.875 0 0.01875 -0.75 1.56797e-20 0.452151 0.8125
0 0.327419 -0.8125 -1.00974e-28 0.32834 0.4375 0 0.759871 -0.4375 -6.31089e-30
0.761365 0.875 5.04368e-19 0.0804812 -0.875 -2.51369e-18 0.080669 0.3125 0 0.821875
-0.3125 0 0.823027 2.47722e-11 -1.26218e-29 0.88424 0.0625 -1.66421e-18 0.884149 0.875
0 0.142212 0.33235 7.88861e-31 0.821834 -0.875 0 0.142591 -0.0625 2.92278e-18
0.884351 0.625 6.31089e-30 0.63625 0.125 0 0.884028 -0.625 0 0.637779
-0.125 1.26218e-29 0.88448 0.6875 0 0.574467 0.5625 6.31089e-30 0.698012 -0.6875
2.52435e-29 0.575948 -0.5625 0 0.699618 0.875 2.58384e-20 0.203944 -0.875 9.09699e-19
0.204515 0.8125 0 0.389154 -0.8125 3.37331e-18 0.390268 0.375 1.97423e-18 0.821747
0.1875 -1.85962e-18 0.8839 -0.1875 2.49188e-18 0.884624 -0.375 -1.97905e-18 0.82318 0.75
6.31089e-30 0.512662 -0.75 0 0.514078 0.5 0 0.759805 -0.5 0
0.761448 0.875 -6.31089e-30 0.265675 -0.875 0 0.266443 0.25 0 0.883795
-0.25 0 0.88478 0.8125 0 0.450889 -0.8125 0 0.452199 0.4375
3.15544e-30 0.821642 -0.4375 1.26218e-29 0.823271 0.875 -9.20802e-19 0.327407 -0.875 9.03125e-19
0.328375 0.6875 0 0.636224 0.625 -2.7446e-18 0.698 0.3125 -2.49404e-18 0.883686
-0.9375 4.03897e-28 0 0.9375 0 0 -0.9375 -1.92536e-18 0.01875 0.9375
4.53743e-19 0.01875 -0.6875 -3.21362e-18 0.637874 -0.625 1.90886e-19 0.699706 -0.3125 8.78757e-19
0.884945 0.9375 0 0.0804805 -0.9375 4.03897e-28 0.0806755 0.75 -1.26218e-29 0.574406
0.5625 1.00038e-18 0.759764 -0.75 0 0.576008 3.4849e-11 2.81091e-18 0.946078 -0.5625
-2.18181e-18 0.761541 0.0625 0 0.945974 0.9375 1.49422e-18 0.142211 -0.0625 -1.26218e-29
0.946205 -0.9375 1.98124e-18 0.142604 0.358506 3.9443e-31 0.883577 0.125 -1.04263e-18 0.945865
-0.125 2.57769e-18 0.946353 0.875 0 0.389138 -0.875 0 0.39031 0.9375
0 0.203942 -0.9375 4.03897e-28 0.204536 0.375 7.88861e-31 0.883538 0.8125 -2.70638e-18
[...]
POINT_DATA 9400
FIELD attributes 1
U 3 9400 float
20 0 0 20.1856 -3.62252e-05 -0.00221442 20 0 0 20 0
0 20.1829 -4.2633e-05 -0.00217814 20.1885 -2.97719e-05 -0.00224268 20.1855 -3.62579e-05 -0.00644144
20.1884 -2.98032e-05 -0.00652335 20.1828 -4.26686e-05 -0.00633638 20 0 0 20
0 0 20.1803 -4.89627e-05 -0.00213376 20.1915 -2.3304e-05 -0.00226284 20.1854 -3.63222e-05
-0.0114172 20.1915 -2.33141e-05 -0.00658175 20.1802 -4.90215e-05 -0.006208 20 0 0
20.1884 -2.9835e-05 -0.0115623 20.1826 -4.27653e-05 -0.0112316 20.193 -2.01633e-05 -0.00226865 20
0 0 20 0 0 20.1937 -1.86154e-05 -0.00660681 20.1779 -5.5239e-05
-0.00208094 20.1946 -1.68037e-05 -0.00227487 20.1914 -2.33075e-05 -0.011666 20.18 -4.91539e-05 -0.0110053
20.1946 -1.67925e-05 -0.00661653 20.1778 -5.53139e-05 -0.00605519 20.1852 -3.64183e-05 -0.0164503 20.1882
-2.98743e-05 -0.0166593 20.1824 -4.29138e-05 -0.0161838 20.1943 -1.72524e-05 -0.0117232 20.1946 -1.67459e-05
-0.011728 20.1776 -5.54791e-05 -0.0107366 20.1913 -2.32876e-05 -0.0168096 20.1797 -4.93539e-05 -0.0158598
20 0 0 20 0 0 20.1758 -6.14653e-05 -0.00201908 20.1978
-1.02716e-05 -0.00227857 20.1946 -1.67088e-05 -0.0141846 20.1978 -1.02523e-05 -0.0066272 20.1757 -6.15462e-05
-0.00587652 20.1849 -3.65424e-05 -0.0215653 20.188 -2.99216e-05 -0.0218398 20.182 -4.31111e-05 -0.0212169
20.1945 -1.66678e-05 -0.0169 20.1772 -5.57279e-05 -0.0154768 20.1948 -1.61707e-05 -0.0169022 20.1979
-1.01703e-05 -0.0117474 20.1754 -6.17382e-05 -0.0104235 20.1912 -2.3256e-05 -0.0220388 20.1793 -4.96205e-05
-0.0207952 20 0 0 20 0 0 20.1739 -6.76278e-05 -0.00194709
20.2011 -3.74227e-06 -0.00227375 20.2012 -3.71781e-06 -0.00661316 20.1979 -1.00335e-05 -0.0169294 20.1737
-6.77139e-05 -0.00566911 20.175 -6.20307e-05 -0.0150328 20.1945 -1.65545e-05 -0.0221595 20.1768 -5.60587e-05
-0.0202994 20.1846 -3.66944e-05 -0.0267858 20.1951 -1.52819e-05 -0.0221673 20.1877 -2.99765e-05 -0.0271282
20.1816 -4.33553e-05 -0.0263541 20.2012 -3.60323e-06 -0.0117231 20.1734 -6.79274e-05 -0.0100616 20.191
-2.32094e-05 -0.0273785 20.1788 -4.9951e-05 -0.0258335 20.1979 -9.83582e-06 -0.0222008 20.1744 -6.24206e-05
-0.0197281 20.2012 -3.40589e-06 -0.0168961 20.1729 -6.82581e-05 -0.014523 20 0 0
20 0 0 20.1722 -7.36999e-05 -0.00186308 20.2045 2.73839e-06 -0.00226019 20.1944
-1.6403e-05 -0.0275327 20.1762 -5.64705e-05 -0.0252253 20.2045 2.78253e-06 -0.00657376 20.1721 -7.37976e-05
-0.00542791 20.1954 -1.43963e-05 -0.0275491 20.1842 -3.68626e-05 -0.0321354 20.1874 -3.0026e-05 -0.0325493
20.1811 -4.36344e-05 -0.0316169 20.2046 2.93525e-06 -0.011654 20.1717 -7.40332e-05 -0.00964349 20.1908
-2.31337e-05 -0.0328546 20.1782 -5.03353e-05 -0.0309954 20.2013 -3.12266e-06 -0.0221603 20.1723 -6.87037e-05
-0.0190771 20.1978 -9.5758e-06 -0.0275887 20.1738 -6.2909e-05 -0.0245293 20.2047 3.19653e-06 -0.0167983
20.1712 -7.44001e-05 -0.0139392 20.1942 -1.61983e-05 -0.0330464 20.1755 -5.6955e-05 -0.030274 20
0 0 20 0 0 20.1709 -7.96751e-05 -0.00176385 20.2078 9.15569e-06
-0.00223771 20.1957 -1.33376e-05 -0.0330771 20.2079 9.22586e-06 -0.00650843 20.1707 -7.97842e-05 -0.00514448
20.1837 -3.70348e-05 -0.0376375 20.2014 -2.7497e-06 -0.0275436 20.1716 -6.92636e-05 -0.0237426 20.187
-3.00582e-05 -0.0381279 20.1805 -4.39403e-05 -0.0370274 20.2048 3.57021e-06 -0.0220354 20.1705 -7.4898e-05
-0.0183391 20.208 9.4224e-06 -0.0115389 20.1703 -8.00441e-05 -0.00915678 20.1978 -9.2369e-06 -0.033121
20.173 -6.34881e-05 -0.029454 20.1905 -2.30186e-05 -0.0384937 20.1775 -5.07686e-05 -0.0363011 20.2082
9.75022e-06 -0.0166343 20.1696 -8.0449e-05 -0.0132681 20.1941 -1.59266e-05 -0.0387284 20.1747 -5.75069e-05
-0.0354636 20.205 4.05986e-06 -0.0273939 20.1696 -7.5526e-05 -0.0228601 20.2015 -2.26979e-06 -0.0330747
20.1707 -6.99312e-05 -0.0285348 20 0 0 20 0 0 20.1699
-8.55504e-05 -0.00164382 20.2112 1.54902e-05 -0.00220611 20.1962 -1.1946e-05 -0.0387832 20.2113 1.55897e-05
-0.00641662 20.1697 -8.56745e-05 -0.00480441 20.2084 1.02208e-05 -0.0218239 20.1688 -8.09969e-05 -0.0175027
20.1831 -3.72042e-05 -0.0433157 20.1978 -8.80042e-06 -0.0388266 20.172 -6.41515e-05 -0.0345182 20.1865
-3.00648e-05 -0.0438893 20.1798 -4.42665e-05 -0.0426072 20.2114 1.58363e-05 -0.0113769 20.1692 -8.59613e-05
-0.00858112 20.1902 -2.28528e-05 -0.0443222 20.1766 -5.1244e-05 -0.0417702 20.2117 1.62338e-05 -0.0164028
20.1684 -8.64046e-05 -0.0124892 20.2052 4.68565e-06 -0.0329032 20.1686 -7.62772e-05 -0.0275138 20.1939
-1.55761e-05 -0.044607 20.2087 1.08325e-05 -0.0271366 20.1737 -5.81207e-05 -0.0408115 20.1679 -8.17005e-05
-0.0218735 20.2016 -1.66337e-06 -0.0387835 20.1696 -7.0702e-05 -0.0334665 20 0 0
20 0 0 20.1693 -9.13324e-05 -0.00149273 20.2146 2.17403e-05 -0.00216521 20.1968
-1.00873e-05 -0.0447027 20.212 1.68046e-05 -0.0215236 20.1675 -8.70029e-05 -0.0165505 20.2147 2.18639e-05
-0.00629789 20.169 -9.14734e-05 -0.00438226 20.1978 -8.25388e-06 -0.0447347 20.171 -6.48957e-05 -0.0397362
20.1824 -3.73649e-05 -0.0491933 20.186 -3.0035e-05 -0.0498586 20.1789 -4.46052e-05 -0.0483776 20.2149
2.21602e-05 -0.0111672 20.1684 -9.1788e-05 -0.00788258 20.209 1.16072e-05 -0.0326026 20.1668 -8.25242e-05
-0.0263868 20.2055 5.46892e-06 -0.0385942 20.1675 -7.715e-05 -0.0323091 20.1898 -2.2621e-05 -0.0503671
20.1757 -5.17512e-05 -0.0474217 20.2123 1.75439e-05 -0.0267689 20.1664 -8.77833e-05 -0.0207707 20.2151
2.26336e-05 -0.0161023 20.1675 -9.2269e-05 -0.01157 20.2017 -9.14918e-07 -0.0447006 20.1685 -7.15723e-05
-0.0385488 20.1937 -1.51312e-05 -0.0507097 20.1726 -5.87882e-05 -0.046334 20.2155 2.33045e-05 -0.0211329
20.1664 -9.29185e-05 -0.0154576 20 0 0 20 0 0 20.1693
-9.70289e-05 -0.00129067 20.218 2.79066e-05 -0.00211489 20.1977 -7.65325e-06 -0.050874 20.1977 -7.58495e-06
-0.0508755 20.1698 -6.57157e-05 -0.0451219 20.1977 -7.56415e-06 -0.0510391 20.2094 1.25732e-05 -0.0382535
20.1655 -8.34837e-05 -0.0310453 20.2181 2.80511e-05 -0.00615173 20.1688 -9.71845e-05 -0.00383077 20.2128
1.84689e-05 -0.0321693 20.1652 -8.86772e-05 -0.0251468 20.2057 6.42636e-06 -0.0444984 20.1662 -7.81403e-05
-0.0372527 20.1816 -3.74982e-05 -0.0552927 20.1854 -2.99498e-05 -0.0560611 20.178 -4.49415e-05 -0.0543595
20.2183 2.83949e-05 -0.0109088 20.168 -9.75244e-05 -0.0070031 20.1893 -2.23043e-05 -0.0566558 20.1746
-5.2278e-05 -0.0532742 20.216 2.41698e-05 -0.0262886 20.1651 -9.37508e-05 -0.0195354 20.2018 -1.01965e-08
-0.0508577 20.1672 -7.25363e-05 -0.0437923 20.2186 2.89422e-05 -0.0157316 20.1668 -9.80422e-05 -0.0104613
20.1934 -1.45716e-05 -0.0570665 20.1714 -5.94977e-05 -0.0520474 20.2133 1.96177e-05 -0.0377569 20.1638
-8.97192e-05 -0.0296735 20.2098 1.37477e-05 -0.0441217 20.1641 -8.45969e-05 -0.0358507 20.2191 2.97053e-05
-0.0206498 20.1655 -9.87411e-05 -0.0141898 20.1976 -6.77062e-06 -0.0572804 20.2166 2.52467e-05 -0.0316003
20.1684 -6.65993e-05 -0.0506886 20.1638 -9.47315e-05 -0.0237859 20.206 7.5766e-06 -0.0506488 20.1648
-7.92407e-05 -0.0423513 20 0 0 20 0 0 20.1698 -0.000102641
-0.000995434 20.2213 3.39729e-05 -0.00205505 20.1987 -4.78449e-06 -0.0572823 20.2214 3.4144e-05 -0.00597763
20.1692 -0.000102808 -0.00305606 20.1807 -3.75647e-05 -0.0616385 20.1846 -2.97724e-05 -0.0625236 20.1769
-4.52411e-05 -0.0605748 20.2216 3.45365e-05 -0.0106008 20.1679 -0.00010317 -0.00584088 20.2197 3.06894e-05
-0.0256931 20.1641 -9.96238e-05 -0.0181479 20.2019 1.07508e-06 -0.0572877 20.1888 -2.18684e-05 -0.0632174
20.1657 -7.3583e-05 -0.0492071 20.1734 -5.27972e-05 -0.0593471 20.2139 2.10131e-05 -0.043565 20.1623
-9.09528e-05 -0.0343454 20.222 3.51466e-05 -0.0152892 20.1664 -0.000103721 -0.00909004 20.2173 2.65808e-05
-0.0371007 20.1623 -9.58766e-05 -0.0281923 20.2103 1.51486e-05 -0.0502413 20.1626 -8.58299e-05 -0.0408049
20.193 -1.38589e-05 -0.0637085 20.1701 -6.02216e-05 -0.0579682 20.2204 3.19185e-05 -0.0308926 20.1626
-0.000100686 -0.0222956 20.2226 3.59901e-05 -0.0200723 20.1648 -0.000104465 -0.0127049 20.2063 8.94542e-06
-0.0570798 20.1632 -8.04431e-05 -0.0476117 20.1975 -5.76514e-06 -0.0639831 20.167 -6.75161e-05 -0.05645
20 0 0 20 0 0 20.1713 -0.000108172 -0.000508939 20.2245
3.99448e-05 -0.00198574 20.2246 4.01368e-05 -0.00577605 20.1701 -0.000108341 -0.00185584 20.2 -1.1643e-06
-0.064007 20.1796 -3.75345e-05 -0.0682561 20.218 2.81931e-05 -0.0428234 20.2233 3.70863e-05 -0.0249798
20.2146 2.26679e-05 -0.0496284 20.1632 -0.000105407 -0.0165891 20.1607 -9.72074e-05 -0.0327399 20.1607
-9.23137e-05 -0.0391591 20.1838 -2.94672e-05 -0.0692744 20.1757 -4.54728e-05 -0.067046 20.2249 4.05757e-05
-0.0102439 20.1681 -0.000108721 -0.00421281 20.202 2.38518e-06 -0.0640255 20.1641 -7.46864e-05 -0.0548041
20.1881 -2.12723e-05 -0.0700821 20.2212 3.34368e-05 -0.0362809 20.172 -5.32756e-05 -0.0656602 20.161
-0.000101929 -0.0266011 20.2108 1.68056e-05 -0.0566479 20.161 -8.71843e-05 -0.0459107 20.2254 4.1244e-05
-0.0147761 20.1661 -0.000109303 -0.00735777 20.1926 -1.29507e-05 -0.070668 20.1685 -6.09306e-05 -0.0641137
20.2241 3.84628e-05 -0.0300426 20.1615 -0.000106541 -0.0206724 20.2066 1.0574e-05 -0.0638279 20.1615
-8.17259e-05 -0.0530412 20.226 4.21516e-05 -0.0194016 20.1642 -0.000110089 -0.0109613 20.1973 -4.52519e-06
-0.0710162 20.1653 -6.84439e-05 -0.0624206 20.2189 3.00993e-05 -0.048804 20.159 -9.86908e-05 -0.0374206
20.2221 3.52635e-05 -0.0418923 20.1593 -0.000103355 -0.0310413 20.2153 2.46161e-05 -0.0559838 20.159
-9.38134e-05 -0.0441127 20 0 0 20 0 0 20.1743 -0.000113611
0.00040892 20.2277 4.57647e-05 -0.001907 20.2278 4.59741e-05 -0.00554714 20.1718 -0.000113781 0.000243365
20.2268 4.33386e-05 -0.0241498 20.1623 -0.000111087 -0.0148478 20.2017 3.40569e-06 -0.0711018 20.2021
3.969e-06 -0.0711079 20.2251 4.01582e-05 -0.0352934 20.1785 -3.73862e-05 -0.0751708 20.1623 -7.58257e-05
-0.0605947 20.1598 -0.000107867 -0.0249064 20.2114 1.87657e-05 -0.0633796 20.1828 -2.90078e-05 -0.0763396
20.2282 4.64525e-05 -0.0098385 20.1743 -4.56142e-05 -0.0737959 20.1682 -0.000114177 -0.00178847 20.1592
-8.86381e-05 -0.0511726 20.2021 4.21397e-06 -0.0720727 20.1874 -2.04812e-05 -0.0772805 20.1705 -5.36901e-05
-0.0722336 20.2287 4.71783e-05 -0.0141927 20.1656 -0.000114789 -0.00516862 20.1921 -1.18111e-05 -0.0779788
20.1668 -6.16067e-05 -0.0705011 20.2278 4.48502e-05 -0.0290512 20.1605 -0.00011229 -0.0189209 20.207
1.25158e-05 -0.0709322 20.1596 -8.30686e-05 -0.058649 20.2232 3.74205e-05 -0.0477627 20.2199 3.23427e-05
-0.05508 20.1575 -0.000104958 -0.0356012 20.1572 -0.000100329 -0.042229 20.2294 4.81432e-05 -0.0186384
20.1634 -0.000115618 -0.00894349 20.2262 4.21952e-05 -0.0407665 20.1581 -0.000109392 -0.0292596 20.2161
2.69119e-05 -0.0626706 20.197 -3.01777e-06 -0.0784169 20.1571 -9.54312e-05 -0.0492084 20.1634 -6.93701e-05
-0.0686149 20 0 0 20 0 0 20.2289 4.67133e-05 -0.0341384
20.1803 -0.000118946 0.00227862 20.2307 5.13566e-05 -0.00181894 20.1588 -0.000113698 -0.0231209 20.2303
4.94068e-05 -0.023204 20.1614 -0.00011667 -0.012935 20.2119 2.10794e-05 -0.0704773 20.1572 -9.01752e-05
-0.0565958 20.2309 5.15878e-05 -0.00529117 20.1745 -0.000119126 0.00441432 20.2021 5.86473e-06 -0.0785739
20.1603 -7.69879e-05 -0.0665907 20.1771 -3.70762e-05 -0.0824089 20.1817 -2.83491e-05 -0.0837495 20.2313
5.21027e-05 -0.00938506 20.2037 8.70704e-06 -0.0785295 20.1671 -0.00011954 0.00200387 20.1728 -4.56294e-05
-0.080848 20.2244 3.99527e-05 -0.0539302 20.1865 -1.94509e-05 -0.0848454 20.1556 -0.00010673 -0.0402726
20.1687 -5.40118e-05 -0.0790879 20.2275 4.45981e-05 -0.046498 20.2209 3.49732e-05 -0.061692 20.1562
-0.000111111 -0.0337139 20.1552 -0.000102106 -0.0471638 20.2318 5.28832e-05 -0.0135399 20.1647 -0.00012018
-0.00258666 20.2314 5.10387e-05 -0.0279198 20.1595 -0.000117939 -0.0170633 20.2073 1.48142e-05 -0.0784341
20.1915 -1.039e-05 -0.0856765 20.1649 -6.22214e-05 -0.0771482 20.1575 -8.44573e-05 -0.0644438 20.2302
4.89554e-05 -0.0394453 20.1569 -0.000115318 -0.0274118 20.217 2.96016e-05 -0.0697313 20.155 -9.71544e-05
-0.0544496 20.2326 5.39124e-05 -0.0177835 20.1624 -0.000121051 -0.00671685 20.1967 -1.18683e-06 -0.086224
20.1614 -7.02638e-05 -0.0750478 20.2326 5.30542e-05 -0.0328175 20.1577 -0.000119426 -0.0212697 20.2125
2.37896e-05 -0.0779843 20.155 -9.17845e-05 -0.0621878 20.2336 5.52577e-05 -0.0221437 20.1603 -0.000122154
-0.0108984 20.2289 4.7408e-05 -0.0525265 20.2257 4.29086e-05 -0.0604361 20.202 8.12833e-06 -0.0864651
20 0 0 20 0 0 20.1905 -0.000124193 0.00507027 20.2337
5.67187e-05 -0.0017218 20.1543 -0.000113016 -0.0382583 20.1536 -0.000108663 -0.0450525 20.1582 -7.81471e-05
-0.0728044 20.2339 5.6969e-05 -0.00500868 20.1787 -0.000124381 0.013405 20.2317 5.16002e-05 -0.0450079
20.2221 3.8039e-05 -0.0686835 20.155 -0.000117148 -0.0317751 20.1756 -3.65521e-05 -0.0899987 20.1531
-0.000104011 -0.0522265 20.1804 -2.74326e-05 -0.0915357 20.2343 5.75175e-05 -0.0088845 20.171 -4.54723e-05
-0.0882271 20.1607 -0.000124814 0.00801466 20.2061 1.5046e-05 -0.0864007 20.1854 -1.81196e-05 -0.0928116
20.1668 -5.42009e-05 -0.0862446 20.2348 5.69965e-05 -0.0266496 20.1583 -0.000123486 -0.0151467 20.2349
5.83477e-05 -0.012819 20.1637 -0.000125482 -0.000479762 20.2075 1.7526e-05 -0.0863776 20.2341 5.5494e-05
-0.0379308 20.1552 -8.58713e-05 -0.0704348 20.1558 -0.000121139 -0.0255228 20.2179 3.27324e-05 -0.0772109
20.1527 -9.89777e-05 -0.0598412 20.1907 -8.62182e-06 -0.0937995 20.1628 -6.27359e-05 -0.0840735 20.2358
5.94451e-05 -0.0168388 20.1611 -0.000126391 -0.00444825 20.1962 1.04096e-06 -0.094479 20.1591 -7.10892e-05
-0.0817348 20.2305 5.0677e-05 -0.0588941 20.1522 -0.000115099 -0.0428898 20.2334 5.46795e-05 -0.0508647
20.2272 4.63434e-05 -0.0673247 20.2363 5.91463e-05 -0.0313325 20.1531 -0.000119182 -0.0362024 20.1565
-0.000125049 -0.0193965 20.1514 -0.000110746 -0.0499415 20.2131 2.69618e-05 -0.0859471 20.1526 -9.34459e-05
-0.0679561 20.2076 1.92477e-05 -0.0909087 20.2368 6.0872e-05 -0.0209708 20.1588 -0.000127544 -0.00880875
20.2358 5.83686e-05 -0.0432952 20.2233 4.15936e-05 -0.0761013 20.2019 1.08355e-05 -0.094826 20.1539
-0.000123075 -0.0298095 20.1557 -7.92741e-05 -0.0792486 20.1507 -0.000106041 -0.0574203 20 0
0 20 0 0 20.1937 -0.000129349 0.00596169 20.2365 6.18708e-05 -0.00161577
20.2367 6.2119e-05 -0.0047004 20.185 -0.000128728 0.0172485 20.1738 -3.57583e-05 -0.0979691 20.1789
-2.61888e-05 -0.0997309 20.169 -4.51003e-05 -0.0959587 20.2371 6.26872e-05 -0.0083381 20.1624 -0.00012996
0.0113281 20.2379 6.17588e-05 -0.036225 20.1547 -0.000126851 -0.02363 20.2188 3.63773e-05 -0.0851583
20.2382 6.27051e-05 -0.0252432 20.1842 -1.64084e-05 -0.101215 20.1569 -0.000128937 -0.0132477 20.1646
-5.42187e-05 -0.093726 20.1502 -0.000100882 -0.065389 20.2077 2.07302e-05 -0.0948106 20.1527 -8.72865e-05
-0.0766326 20.2086 2.2225e-05 -0.0947514 20.2378 6.3559e-05 -0.0120316 20.1612 -0.000129869 0.0029224
20.2352 5.82455e-05 -0.0570576 20.2322 5.44643e-05 -0.0656445 20.1898 -6.42448e-06 -0.102388 20.1604
-6.31204e-05 -0.091296 20.1509 -0.00012141 -0.0406923 20.1499 -0.000117352 -0.047609 20.2377 6.16954e-05
-0.0489486 20.2287 5.03148e-05 -0.0746442 20.1519 -0.000125231 -0.0341273 20.149 -0.000112975 -0.0549408
20.2387 6.47293e-05 -0.0158065 20.1583 -0.000131604 -0.000981921 20.1956 3.74694e-06 -0.103225 20.1566
-7.18224e-05 -0.0886919 20.2398 6.4968e-05 -0.029686 20.1552 -0.00013057 -0.0175638 20.2137 3.06815e-05
-0.0944166 20.15 -9.5138e-05 -0.0739093 20.2398 6.4834e-05 -0.041362 20.2246 4.57149e-05 -0.083996
20.1528 -0.00012889 -0.027848 20.1482 -0.000108179 -0.0627505 20.2399 6.62444e-05 -0.0196883 20.1569
-0.000132009 -0.0070151 20.2016 1.4075e-05 -0.103702 20.1531 -8.03429e-05 -0.0859363 20 0
0 20.2391 6.67752e-05 -0.00150119 20.2393 6.70197e-05 -0.00436725 20.2373 6.23509e-05 -0.063632
20.2416 6.77251e-05 -0.034331 20.1487 -0.000123829 -0.0452469 20.2198 4.06284e-05 -0.0936267 20.1534
-0.000132457 -0.0217813 20.1718 -3.465e-05 -0.10635 20.2398 6.5534e-05 -0.0549327 20.1475 -0.000102846
-0.0710995 20.2341 5.88329e-05 -0.0728272 20.1771 -2.45805e-05 -0.108368 20.1668 -4.44655e-05 -0.104069
20.2398 6.75999e-05 -0.00774751 20.1498 -0.000127603 -0.0384797 20.1475 -0.000119778 -0.0524179 20.2414
6.81632e-05 -0.0237038 20.155 -0.000134258 -0.0113383 20.2079 2.45265e-05 -0.103784 20.1499 -8.868e-05
-0.0830484 20.1828 -1.42829e-05 -0.110092 20.1621 -5.4017e-05 -0.101555 20.242 6.83829e-05 -0.0467807
20.2406 6.84995e-05 -0.0111803 20.2304 5.49043e-05 -0.0824467 20.1508 -0.000131164 -0.0320587 20.1464
-0.000115339 -0.0600548 20.1887 -3.75941e-06 -0.111483 20.2111 2.97607e-05 -0.103617 20.1578 -6.33297e-05
-0.0988345 20.2416 6.97283e-05 -0.0146898 20.2431 7.05109e-05 -0.0278819 20.1538 -0.000135145 -0.016138
20.2143 3.50518e-05 -0.103448 20.1949 6.97638e-06 -0.11251 20.1538 -7.24254e-05 -0.0959345 20.2437
7.09732e-05 -0.0392116 20.226 5.04997e-05 -0.0924233 20.1471 -9.68445e-05 -0.0800561 20.1516 -0.000134595
-0.0259266 20.1454 -0.000110408 -0.0682211 20.2428 7.13207e-05 -0.0182999 20.2422 6.99279e-05 -0.0612926
20.2395 6.708e-05 -0.070637 20.2013 1.79018e-05 -0.113146 20.1475 -0.000130184 -0.0428736 20.1462
-0.000126445 -0.0498694 20.1501 -8.13191e-05 -0.0928781 20.2443 7.2469e-05 -0.0525217 20.2362 6.38736e-05
-0.0804957 20.1487 -0.000133672 -0.0362727 20.1449 -0.000122363 -0.0573196 20.2451 7.3391e-05 -0.0322528
20.2208 4.5588e-05 -0.102674 20.1519 -0.000137931 -0.0200391 20 0 0 20
0 0 20.2416 7.13953e-05 -0.00137848 20.1924 -0.000139313 0.00445 20.1446 -0.000104856
-0.0769801 20.2418 7.16499e-05 -0.00401042 20.2444 7.331e-05 -0.022036 20.1695 -3.31855e-05 -0.115172
20.2079 2.89767e-05 -0.113354 20.246 7.47151e-05 -0.0443641 20.2322 6.02167e-05 -0.09079 20.1751
-2.25754e-05 -0.117484 20.1642 -4.35132e-05 -0.112585 20.2423 7.22406e-05 -0.0071148 20.1497 -0.000136983
-0.0300252 20.1468 -9.00184e-05 -0.0896919 20.1436 -0.000117826 -0.0652886 20.1788 -0.00013997 0.0164155
20.1811 -1.1709e-05 -0.119484 20.1593 -5.35453e-05 -0.109753 20.2431 7.31578e-05 -0.010268 20.1873
-5.87082e-07 -0.121131 20.1548 -6.33158e-05 -0.106708 20.2132 3.75938e-05 -0.113158 20.2474 7.67815e-05
-0.0368487 20.2274 5.60541e-05 -0.101444 20.1504 -0.000139324 -0.0243983 20.2463 7.57206e-05 -0.0259253
20.2148 4.01387e-05 -0.1131 20.2448 7.49862e-05 -0.0680776 20.1424 -0.000112717 -0.0738388 20.2442
7.44207e-05 -0.0134925 20.1439 -9.85369e-05 -0.0864042 20.1451 -0.000132981 -0.0473143 20.1434 -0.000141769
0.00689188 20.1939 1.07757e-05 -0.122383 20.2419 7.25449e-05 -0.078127 20.247 7.71324e-05 -0.0586299
20.1506 -7.285e-05 -0.103478 20.1464 -0.00013641 -0.0405064 20.1436 -0.000129245 -0.0545622 20.2384
6.96986e-05 -0.0887093 20.2487 7.90143e-05 -0.0498282 20.1476 -0.000139619 -0.0340904 20.1421 -0.000125098
-0.0623194 20.2456 7.60572e-05 -0.0168106 20.2008 2.23619e-05 -0.123212 20.1469 -8.21621e-05 -0.100089
20.2484 7.86975e-05 -0.0299965 20.2218 5.1322e-05 -0.112365 20.1413 -0.00010689 -0.0830373 20.2341
6.63624e-05 -0.0997372 20.25 8.06602e-05 -0.0417042 20.1484 -0.000142662 -0.02808 20.1405 -0.000120426
-0.0706486 20 0 0 20.2439 7.57398e-05 -0.00124814 20.2441 7.59979e-05 -0.0036313
20.2472 7.8091e-05 -0.0202458 20.2079 3.41276e-05 -0.123581 20.1435 -9.12655e-05 -0.0965735 20.1507
-0.000144648 -0.00993564 20.1669 -3.12924e-05 -0.124469 20.1728 -2.00916e-05 -0.127114 20.1614 -4.21845e-05
-0.121534 20.2447 7.65977e-05 -0.00644248 20.1791 -8.60231e-06 -0.129432 20.2476 8.08392e-05 -0.0753417
20.2499 8.2493e-05 -0.0651535 20.1562 -5.27522e-05 -0.118346 20.144 -0.000139383 -0.044771 20.1425
-0.000135989 -0.0518021 20.2455 7.75315e-05 -0.00929835 20.2446 7.88494e-05 -0.0861622 20.2516 8.39165e-05
-0.0556473 20.2289 6.24448e-05 -0.111125 20.1858 3.18034e-06 -0.131379 20.2509 8.21964e-05 -0.0342799
20.1454 -0.000142507 -0.0381566 20.1407 -0.000132222 -0.059329 20.1515 -6.3032e-05 -0.114937 20.1391
-0.000115083 -0.0796095 20.2148 4.53453e-05 -0.123447 20.2492 8.05458e-05 -0.0238235 20.2152 4.59972e-05
-0.123439 20.1405 -0.000100179 -0.0929609 20.2466 7.88149e-05 -0.0122195 20.1927 1.52383e-05 -0.132899
20.2408 7.64202e-05 -0.0975331 20.2529 8.51297e-05 -0.0468574 20.1472 -7.30516e-05 -0.111338 20.1466
-0.000144547 -0.0323154 20.139 -0.000127981 -0.0674248 20.2481 8.04776e-05 -0.0152263 20.2001 2.75549e-05