# vtk DataFile Version 2.0
track0
ASCII
DATASET POLYDATA
POINTS 15780 float
-1.001 -0.05 0.0011
-1.0008 -0.05 0.0011
-1.0006 -0.05 0.0011
-1.0004 -0.05 0.0011
-1.0002 -0.05 0.0011
-1 -0.05 0.0011
-0.9875 -0.05 0.0011
-0.975 -0.05 0.0011
-0.9625 -0.05 0.0011
-0.95 -0.05 0.0011
-0.9375 -0.05 0.00109999
-0.925 -0.05 0.00109999
-0.9125 -0.05 0.00109999
-0.9 -0.05 0.00109999
-0.8875 -0.05 0.00109999
-0.875 -0.05 0.00109999
-0.8625 -0.05 0.00109999
-0.85 -0.05 0.00109999
-0.8375 -0.05 0.00109998
-0.825 -0.0500001 0.00109998
-0.8125 -0.0500001 0.00109998
-0.8 -0.0500001 0.00109998
-0.7875 -0.0500001 0.00109998
-0.775 -0.0500001 0.00109998
-0.7625 -0.0500001 0.00109998
-0.75 -0.0500001 0.00109998
-0.7375 -0.0500001 0.00109997
-0.725 -0.0500001 0.00109997
-0.7125 -0.0500001 0.00109997
-0.7 -0.0500001 0.00109997
-0.6875 -0.0500001 0.00109997
-0.675 -0.0500001 0.00109997
-0.6625 -0.0500001 0.00109997
-0.65 -0.0500001 0.00109996
-0.6375 -0.0500001 0.00109996
-0.625 -0.0500001 0.00109996
-0.6125 -0.0500001 0.00109996
-0.6 -0.0500001 0.00109996
-0.5875 -0.0500001 0.00109996
-0.575 -0.0500001 0.00109996
-0.5625 -0.0500001 0.00109996
-0.55 -0.0500001 0.00109995
-0.5375 -0.0500001 0.00109995
-0.525 -0.0500001 0.00109995
-0.5125 -0.0500001 0.00109995
-0.5 -0.0500001 0.00109995
-0.4875 -0.0500001 0.00109995
-0.475 -0.0500001 0.00109995
-0.4625 -0.0500001 0.00109994
-0.45 -0.0500002 0.00109994
-0.4375 -0.0500002 0.00109994
-0.425 -0.0500002 0.00109994
-0.4125 -0.0500002 0.00109994
-0.4 -0.0500002 0.00109994
-0.3875 -0.0500002 0.00109994
-0.375 -0.0500002 0.00109994
-0.3625 -0.0500002 0.00109993
-0.35 -0.0500002 0.00109993
-0.3375 -0.0500002 0.00109993
-0.325 -0.0500002 0.00109993
-0.3125 -0.0500002 0.00109993
-0.3 -0.0500002 0.00109993
-0.2875 -0.0500002 0.00109993
-0.275 -0.0500002 0.00109993
-0.2625 -0.0500002 0.00109992
-0.25 -0.0500002 0.00109992
-0.2375 -0.0500002 0.00109992
-0.225 -0.0500002 0.00109992
-0.2125 -0.0500002 0.00109992
-0.2 -0.0500002 0.00109992
-0.1875 -0.0500002 0.00109992
-0.175 -0.0500002 0.00109992
-0.1625 -0.0500002 0.00109991
-0.15 -0.0500002 0.00109991
-0.1375 -0.0500002 0.00109991
-0.125 -0.0500002 0.00109991
-0.1125 -0.0500002 0.00109991
-0.1 -0.0500002 0.00109991
-0.0875 -0.0500002 0.00109991
-0.075 -0.0500002 0.00109991
-0.0625 -0.0500002 0.00109991
-0.05 -0.0500003 0.00109991
-0.0375 -0.0500003 0.0010999
-0.025 -0.0500003 0.0010999
-0.0125 -0.0500003 0.0010999
2.10607e-13 -0.0500003 0.0010999
0.0125 -0.0500003 0.0010999
0.025 -0.0500003 0.0010999
0.0375 -0.0500003 0.0010999
0.05 -0.0500003 0.0010999
0.0625 -0.0500003 0.0010999
0.075 -0.0500003 0.0010999
0.0875 -0.0500003 0.0010999
0.1 -0.0500003 0.00109989
0.1125 -0.0500003 0.00109989
0.125 -0.0500003 0.00109989
0.1375 -0.0500003 0.00109989
0.15 -0.0500003 0.00109989
0.1625 -0.0500003 0.00109989
0.175 -0.0500003 0.00109989
0.1875 -0.0500003 0.00109989
0.2 -0.0500003 0.00109989
0.2125 -0.0500003 0.00109989
0.225 -0.0500003 0.00109989
0.2375 -0.0500003 0.00109989
0.25 -0.0500003 0.00109989
0.2625 -0.0500003 0.00109988
0.275 -0.0500003 0.00109988
0.2875 -0.0500003 0.00109988
0.3 -0.0500003 0.00109988
0.3125 -0.0500003 0.00109988
0.325 -0.0500003 0.00109988
0.3375 -0.0500003 0.00109988
0.35 -0.0500003 0.00109988
0.3625 -0.0500003 0.00109988
0.375 -0.0500003 0.00109988
0.3875 -0.0500003 0.00109988
0.4 -0.0500004 0.00109988
0.4125 -0.0500004 0.00109988
0.425 -0.0500004 0.00109988
0.4375 -0.0500004 0.00109988
0.45 -0.0500004 0.00109988
0.4625 -0.0500004 0.00109988
0.475 -0.0500004 0.00109988
0.4875 -0.0500004 0.00109988
0.5 -0.0500004 0.00109988
0.5125 -0.0500004 0.00109988
0.525 -0.0500004 0.00109988
0.5375 -0.0500004 0.00109988
0.55 -0.0500004 0.00109988
0.5625 -0.0500004 0.00109988
0.575 -0.0500004 0.00109987
0.5875 -0.0500004 0.00109987
0.6 -0.0500004 0.00109987
0.6125 -0.0500004 0.00109987
0.625 -0.0500004 0.00109987
0.6375 -0.0500004 0.00109987
0.65 -0.0500004 0.00109987
0.6625 -0.0500004 0.00109987
0.675 -0.0500004 0.00109987
0.6875 -0.0500004 0.00109987
0.7 -0.0500004 0.00109987
0.7125 -0.0500004 0.00109987
0.725 -0.0500004 0.00109987
0.7375 -0.0500004 0.00109987
0.75 -0.0500004 0.00109987
0.7625 -0.0500004 0.00109987
0.775 -0.0500004 0.00109987
0.7875 -0.0500004 0.00109987
0.8 -0.0500004 0.00109987
0.8125 -0.0500004 0.00109987
0.825 -0.0500004 0.00109987
0.8375 -0.0500004 0.00109987
0.85 -0.0500004 0.00109987
0.8625 -0.0500004 0.00109987
0.875 -0.0500004 0.00109987
0.8875 -0.0500004 0.00109987
0.9 -0.0500004 0.00109987
0.9125 -0.0500005 0.00109988
0.925 -0.0500005 0.00109988
0.9375 -0.0500005 0.00109988
0.95 -0.0500005 0.00109988
0.9625 -0.0500005 0.00109988
0.975 -0.0500005 0.00109988
0.9875 -0.0500005 0.00109988
1 -0.0500005 0.00109988
1.0125 -0.0500005 0.00109988
1.025 -0.0500005 0.00109988
1.0375 -0.0500005 0.00109988
1.05 -0.0500005 0.00109988
1.0625 -0.0500005 0.00109988
1.075 -0.0500005 0.00109988
1.0875 -0.0500005 0.00109988
1.1 -0.0500005 0.00109988
1.1125 -0.0500005 0.00109988
1.125 -0.0500005 0.00109988
1.1375 -0.0500005 0.00109988
1.15 -0.0500005 0.00109988
1.1625 -0.0500005 0.00109988
1.175 -0.0500005 0.00109988
1.1875 -0.0500005 0.00109988
1.2 -0.0500005 0.00109988
1.2125 -0.0500005 0.00109988
1.225 -0.0500005 0.00109988
1.2375 -0.0500005 0.00109989
1.25 -0.0500005 0.00109989
1.2625 -0.0500005 0.00109989
1.275 -0.0500005 0.00109989
1.2875 -0.0500005 0.00109989
1.3 -0.0500005 0.00109989
1.3125 -0.0500005 0.00109989
1.325 -0.0500005 0.00109989
1.3375 -0.0500005 0.00109989
1.35 -0.0500005 0.00109989
1.3625 -0.0500005 0.00109989
1.375 -0.0500005 0.00109989
1.3875 -0.0500005 0.00109989
1.4 -0.0500005 0.00109989
1.4125 -0.0500005 0.00109989
1.425 -0.0500005 0.00109989
1.4375 -0.0500005 0.0010999
1.45 -0.0500005 0.0010999
1.4625 -0.0500005 0.0010999
1.475 -0.0500005 0.0010999
1.4875 -0.0500005 0.0010999
1.5 -0.0500006 0.0010999
1.5125 -0.0500006 0.0010999
1.525 -0.0500006 0.0010999
1.5375 -0.0500006 0.0010999
1.55 -0.0500006 0.0010999
1.5625 -0.0500006 0.0010999
1.575 -0.0500006 0.0010999
1.5875 -0.0500006 0.0010999
1.6 -0.0500006 0.0010999
1.6125 -0.0500006 0.00109991
1.625 -0.0500006 0.00109991
1.6375 -0.0500006 0.00109991
1.65 -0.0500006 0.00109991
1.6625 -0.0500006 0.00109991
1.675 -0.0500006 0.00109991
1.6875 -0.0500006 0.00109991
1.7 -0.0500006 0.00109991
1.7125 -0.0500006 0.00109991
1.725 -0.0500006 0.00109991
1.7375 -0.0500006 0.00109991
1.75 -0.0500006 0.00109991
1.7625 -0.0500006 0.00109992
1.775 -0.0500006 0.00109992
1.7875 -0.0500006 0.00109992
1.8 -0.0500006 0.00109992
1.8125 -0.0500006 0.00109992
1.825 -0.0500006 0.00109992
1.8375 -0.0500006 0.00109992
1.85 -0.0500006 0.00109992
1.8625 -0.0500006 0.00109992
1.875 -0.0500006 0.00109992
1.8875 -0.0500006 0.00109992
1.9 -0.0500006 0.00109992
1.9125 -0.0500006 0.00109993
1.925 -0.0500006 0.00109993
1.9375 -0.0500006 0.00109993
1.95 -0.0500006 0.00109993
1.9625 -0.0500006 0.00109993
1.975 -0.0500006 0.00109993
1.9875 -0.0500006 0.00109993
2 -0.0500006 0.00109993
2.0125 -0.0500006 0.00109993
2.025 -0.0500006 0.00109993
2.0375 -0.0500006 0.00109993
2.05 -0.0500006 0.00109993
2.0625 -0.0500006 0.00109994
2.075 -0.0500006 0.00109994
2.0875 -0.0500006 0.00109994
2.1 -0.0500006 0.00109994
2.1125 -0.0500006 0.00109994
2.125 -0.0500006 0.00109994
2.1375 -0.0500006 0.00109994
2.15 -0.0500006 0.00109994
2.1625 -0.0500006 0.00109994
2.175 -0.0500007 0.00109994
2.1875 -0.0500007 0.00109994
2.2 -0.0500007 0.00109994
2.2125 -0.0500007 0.00109994
2.225 -0.0500007 0.00109995
2.2375 -0.0500007 0.00109995
2.25 -0.0500007 0.00109995
2.2625 -0.0500007 0.00109995
2.275 -0.0500007 0.00109995
2.2875 -0.0500007 0.00109995
2.3 -0.0500007 0.00109995
2.3125 -0.0500007 0.00109995
2.325 -0.0500007 0.00109995
2.3375 -0.0500007 0.00109995
2.35 -0.0500007 0.00109995
2.3625 -0.0500007 0.00109995
2.375 -0.0500007 0.00109995
2.3875 -0.0500007 0.00109996
2.4 -0.0500007 0.00109996
2.4125 -0.0500007 0.00109996
2.425 -0.0500007 0.00109996
2.4375 -0.0500007 0.00109996
2.45 -0.0500007 0.00109996
2.4625 -0.0500007 0.00109996
2.475 -0.0500007 0.00109996
2.4875 -0.0500007 0.00109996
2.5 -0.0500007 0.00109996
2.5125 -0.0500007 0.00109996
2.525 -0.0500007 0.00109996
2.5375 -0.0500007 0.00109996
2.55 -0.0500007 0.00109996
2.5625 -0.0500007 0.00109997
2.575 -0.0500007 0.00109997
2.5875 -0.0500007 0.00109997
2.6 -0.0500007 0.00109997
2.6125 -0.0500007 0.00109997
2.625 -0.0500007 0.00109997
2.6375 -0.0500007 0.00109997
2.65 -0.0500007 0.00109997
2.6625 -0.0500007 0.00109997
2.675 -0.0500007 0.00109997
2.6875 -0.0500007 0.00109997
2.7 -0.0500007 0.00109997
2.7125 -0.0500007 0.00109997
2.725 -0.0500007 0.00109997
2.7375 -0.0500007 0.00109997
2.75 -0.0500007 0.00109997
2.7625 -0.0500007 0.00109998
2.775 -0.0500007 0.00109998
2.7875 -0.0500007 0.00109998
2.8 -0.0500007 0.00109998
2.8125 -0.0500007 0.00109998
2.825 -0.0500007 0.00109998
2.8375 -0.0500007 0.00109998
2.85 -0.0500007 0.00109998
2.8625 -0.0500008 0.00109998
2.875 -0.0500008 0.00109998
2.8875 -0.0500008 0.00109998
2.9 -0.0500008 0.00109998
2.9125 -0.0500008 0.00109998
2.925 -0.0500008 0.00109998
2.9375 -0.0500008 0.00109998
2.95 -0.0500008 0.00109998
2.9625 -0.0500008 0.00109998
2.975 -0.0500008 0.00109998
2.9875 -0.0500008 0.00109998
3 -0.0500008 0.00109998
3.0125 -0.0500008 0.00109999
3.025 -0.0500008 0.00109999
3.0375 -0.0500008 0.00109999
3.05 -0.0500008 0.00109999
3.0625 -0.0500008 0.00109999
3.075 -0.0500008 0.00109999
3.0875 -0.0500008 0.00109999
3.1 -0.0500008 0.00109999
3.1125 -0.0500008 0.00109999
3.125 -0.0500008 0.00109999
3.1375 -0.0500008 0.00109999
3.15 -0.0500008 0.00109999
3.1625 -0.0500008 0.00109999
3.175 -0.0500008 0.00109999
3.1875 -0.0500008 0.00109999
3.2 -0.0500008 0.00109999
3.2125 -0.0500008 0.00109999
3.225 -0.0500008 0.00109999
3.2375 -0.0500008 0.00109999
3.25 -0.0500008 0.00109999
3.2625 -0.0500008 0.00109999
3.275 -0.0500008 0.00109999
3.2875 -0.0500008 0.00109999
3.3 -0.0500008 0.00109999
3.3125 -0.0500008 0.00109999
3.325 -0.0500008 0.00109999
3.3375 -0.0500008 0.00109999
3.35 -0.0500008 0.0011
3.3625 -0.0500008 0.0011
[...]
POINT_DATA 15780
 FIELD attributes 1
U 3 15780 float
30.0002 	-7.01786e-06 	-6.30588e-06 30.0002 	-6.84338e-06 	-6.51454e-06 30.0002 	-6.66889e-06 	-6.72321e-06 30.0002 	-6.49441e-06 	-6.93188e-06 30.0002 	-6.31992e-06 	-7.14055e-06 30.0002 	-6.14544e-06 	-7.34921e-06 30.0004 	-1.23851e-05 	-1.26099e-06 30.0004 	-1.23851e-05 	-1.26099e-06 30.0004 	-1.23851e-05 	-1.26099e-06 30.0004 	-1.23851e-05 	-1.26098e-06 30.0002 	-7.0535e-08 	-6.84367e-06 30.0005 	-1.07091e-05 	-1.68703e-06 30.0005 	-1.07091e-05 	-1.68703e-06 30.0005 	-1.07091e-05 	-1.68703e-06 30.0005 	-1.07091e-05 	-1.68703e-06 30.0002 	-7.22305e-08 	-6.59608e-06 30.0005 	-9.95852e-06 	-2.08021e-06 30.0005 	-9.95852e-06 	-2.08021e-06 30.0005 	-9.95851e-06 	-2.08021e-06 30.0005 	-9.9585e-06 	-2.08021e-06 30.0003 	-4.59312e-06 	-6.24726e-06 30.0005 	-9.69178e-06 	-2.34894e-06 30.0005 	-9.69177e-06 	-2.34894e-06 30.0005 	-9.69176e-06 	-2.34894e-06 30.0005 	-9.69176e-06 	-2.34894e-06 30.0003 	-7.58584e-08 	-6.57615e-06 30.0005 	-9.52364e-06 	-2.49781e-06 30.0005 	-9.52363e-06 	-2.49781e-06 30.0005 	-9.52363e-06 	-2.49781e-06 30.0005 	-9.52362e-06 	-2.49781e-06 30.0003 	-7.76333e-08 	-6.52627e-06 30.0005 	-9.3873e-06 	-2.55606e-06 30.0005 	-9.38729e-06 	-2.55605e-06 30.0005 	-9.38728e-06 	-2.55605e-06 30.0005 	-9.38727e-06 	-2.55605e-06 30.0003 	-4.26699e-06 	-6.08528e-06 30.0005 	-9.27989e-06 	-2.55829e-06 30.0005 	-9.27988e-06 	-2.55829e-06 30.0005 	-9.27987e-06 	-2.55828e-06 30.0005 	-9.27986e-06 	-2.55828e-06 30.0003 	-4.1994e-06 	-5.97789e-06 30.0006 	-9.18774e-06 	-2.53042e-06 30.0006 	-9.18774e-06 	-2.53042e-06 30.0006 	-9.18773e-06 	-2.53042e-06 30.0006 	-9.18772e-06 	-2.53042e-06 30.0003 	-8.29767e-08 	-6.20127e-06 30.0006 	-9.09769e-06 	-2.48118e-06 30.0006 	-9.09769e-06 	-2.48117e-06 30.0006 	-9.09768e-06 	-2.48117e-06 30.0006 	-9.09767e-06 	-2.48117e-06 30.0003 	-8.47362e-08 	-6.05423e-06 30.0006 	-9.00525e-06 	-2.4136e-06 30.0006 	-9.00524e-06 	-2.4136e-06 30.0006 	-9.00523e-06 	-2.4136e-06 30.0006 	-9.00522e-06 	-2.4136e-06 30.0003 	-8.64933e-08 	-5.88782e-06 30.0006 	-8.90911e-06 	-2.32972e-06 30.0006 	-8.9091e-06 	-2.32972e-06 30.0006 	-8.9091e-06 	-2.32972e-06 30.0006 	-8.90909e-06 	-2.32972e-06 30.0003 	-3.93803e-06 	-5.36347e-06 30.0006 	-8.80908e-06 	-2.23274e-06 30.0006 	-8.80907e-06 	-2.23274e-06 30.0006 	-8.80906e-06 	-2.23273e-06 30.0006 	-8.80906e-06 	-2.23273e-06 30.0003 	-3.86425e-06 	-5.16475e-06 30.0006 	-8.70483e-06 	-2.12413e-06 30.0006 	-8.70482e-06 	-2.12413e-06 30.0006 	-8.70481e-06 	-2.12413e-06 30.0006 	-8.7048e-06 	-2.12412e-06 30.0003 	-9.17709e-08 	-5.28457e-06 30.0006 	-8.59663e-06 	-2.00507e-06 30.0006 	-8.59662e-06 	-2.00507e-06 30.0006 	-8.59661e-06 	-2.00507e-06 30.0006 	-8.59661e-06 	-2.00506e-06 30.0003 	-3.70464e-06 	-4.71939e-06 30.0007 	-8.48526e-06 	-1.87667e-06 30.0007 	-8.48525e-06 	-1.87667e-06 30.0007 	-8.48524e-06 	-1.87667e-06 30.0007 	-8.48524e-06 	-1.87667e-06 30.0003 	-3.61954e-06 	-4.4743e-06 30.0007 	-8.37191e-06 	-1.73882e-06 30.0007 	-8.37191e-06 	-1.73882e-06 30.0007 	-8.3719e-06 	-1.73882e-06 30.0007 	-8.3719e-06 	-1.73882e-06 30.0004 	-9.69842e-08 	-4.54318e-06 30.0007 	-8.26031e-06 	-1.59802e-06 30.0007 	-8.2603e-06 	-1.59802e-06 30.0007 	-8.2603e-06 	-1.59802e-06 30.0007 	-8.26029e-06 	-1.59802e-06 30.0004 	-9.87047e-08 	-4.27122e-06 30.0007 	-8.14829e-06 	-1.46322e-06 30.0007 	-8.14829e-06 	-1.46322e-06 30.0007 	-8.14828e-06 	-1.46322e-06 30.0007 	-8.14828e-06 	-1.46322e-06 30.0004 	-1.00423e-07 	-3.98925e-06 30.0007 	-8.0202e-06 	-1.32071e-06 30.0007 	-8.0202e-06 	-1.32071e-06 30.0007 	-8.02019e-06 	-1.32071e-06 30.0007 	-8.02019e-06 	-1.32071e-06 30.0004 	-3.25111e-06 	-3.37794e-06 30.0007 	-7.88139e-06 	-1.16799e-06 30.0007 	-7.88139e-06 	-1.16799e-06 30.0007 	-7.88138e-06 	-1.16799e-06 30.0007 	-7.88138e-06 	-1.16799e-06 30.0004 	-1.03823e-07 	-3.40286e-06 30.0007 	-7.74544e-06 	-1.00786e-06 30.0007 	-7.74544e-06 	-1.00786e-06 30.0007 	-7.74544e-06 	-1.00786e-06 30.0007 	-7.74544e-06 	-1.00786e-06 30.0004 	-1.05518e-07 	-3.10325e-06 30.0007 	-7.6113e-06 	-8.41847e-07 30.0007 	-7.61129e-06 	-8.41847e-07 30.0007 	-7.61129e-06 	-8.41846e-07 30.0007 	-7.61129e-06 	-8.41846e-07 30.0004 	-2.9319e-06 	-2.48787e-06 30.0007 	-7.47551e-06 	-6.70193e-07 30.0007 	-7.47551e-06 	-6.70193e-07 30.0007 	-7.47551e-06 	-6.70193e-07 30.0007 	-7.47551e-06 	-6.70193e-07 30.0004 	-2.82542e-06 	-2.18311e-06 30.0007 	-7.34334e-06 	-4.97037e-07 30.0007 	-7.34334e-06 	-4.97037e-07 30.0007 	-7.34334e-06 	-4.97037e-07 30.0007 	-7.34334e-06 	-4.97037e-07 30.0004 	-1.10566e-07 	-2.17108e-06 30.0007 	-7.21552e-06 	-3.17309e-07 30.0007 	-7.21552e-06 	-3.17309e-07 30.0007 	-7.21552e-06 	-3.17309e-07 30.0007 	-7.21552e-06 	-3.17309e-07 30.0004 	-1.12227e-07 	-1.85334e-06 30.0007 	-7.09876e-06 	-1.38204e-07 30.0007 	-7.09876e-06 	-1.38204e-07 30.0007 	-7.09876e-06 	-1.38204e-07 30.0007 	-7.09876e-06 	-1.38204e-07 30.0004 	-1.13876e-07 	-1.549e-06 30.0007 	-6.98542e-06 	4.08614e-08 30.0007 	-6.98542e-06 	4.08614e-08 30.0007 	-6.98542e-06 	4.08614e-08 30.0007 	-6.98542e-06 	4.08614e-08 30.0004 	-2.43891e-06 	-9.58493e-07 30.0007 	-6.87181e-06 	2.1468e-07 30.0007 	-6.87181e-06 	2.1468e-07 30.0007 	-6.87182e-06 	2.1468e-07 30.0007 	-6.87182e-06 	2.14681e-07 30.0004 	-2.34729e-06 	-6.82291e-07 30.0007 	-6.75361e-06 	3.90731e-07 30.0007 	-6.75361e-06 	3.90731e-07 30.0007 	-6.75361e-06 	3.90732e-07 30.0007 	-6.75361e-06 	3.90732e-07 30.0004 	-1.18794e-07 	-7.09748e-07 30.0007 	-6.64306e-06 	5.64381e-07 30.0007 	-6.64306e-06 	5.64381e-07 30.0007 	-6.64306e-06 	5.64382e-07 30.0007 	-6.64306e-06 	5.64382e-07 30.0004 	-2.16691e-06 	-1.45431e-07 30.0007 	-6.53607e-06 	7.27407e-07 30.0007 	-6.53607e-06 	7.27408e-07 30.0007 	-6.53607e-06 	7.27408e-07 30.0007 	-6.53608e-06 	7.27408e-07 30.0004 	-2.08124e-06 	1.13849e-07 30.0007 	-6.43076e-06 	8.78851e-07 30.0007 	-6.43076e-06 	8.78852e-07 30.0007 	-6.43076e-06 	8.78852e-07 30.0007 	-6.43076e-06 	8.78852e-07 30.0004 	-1.23679e-07 	7.06042e-08 30.0007 	-6.32314e-06 	1.0178e-06 30.0007 	-6.32315e-06 	1.0178e-06 30.0007 	-6.32315e-06 	1.0178e-06 30.0007 	-6.32315e-06 	1.0178e-06 30.0004 	-1.25261e-07 	3.15834e-07 30.0007 	-6.21677e-06 	1.14063e-06 30.0007 	-6.21677e-06 	1.14063e-06 30.0007 	-6.21677e-06 	1.14063e-06 30.0007 	-6.21678e-06 	1.14063e-06 30.0004 	-1.26843e-07 	5.45551e-07 30.0007 	-6.1155e-06 	1.25633e-06 30.0007 	-6.1155e-06 	1.25633e-06 30.0007 	-6.1155e-06 	1.25633e-06 30.0007 	-6.11551e-06 	1.25633e-06 30.0004 	-1.76441e-06 	1.03209e-06 30.0007 	-6.02277e-06 	1.37128e-06 30.0007 	-6.02277e-06 	1.37128e-06 30.0007 	-6.02278e-06 	1.37129e-06 30.0007 	-6.02278e-06 	1.37129e-06 30.0004 	-1.29942e-07 	9.36969e-07 30.0007 	-5.94311e-06 	1.48851e-06 30.0007 	-5.94311e-06 	1.48851e-06 30.0007 	-5.94312e-06 	1.48851e-06 30.0007 	-5.94312e-06 	1.48852e-06 30.0004 	-1.31442e-07 	1.10459e-06 30.0007 	-5.8719e-06 	1.5929e-06 30.0007 	-5.8719e-06 	1.5929e-06 30.0007 	-5.87191e-06 	1.5929e-06 30.0007 	-5.87191e-06 	1.59291e-06 30.0004 	-1.59153e-06 	1.53879e-06 30.0007 	-5.8023e-06 	1.67933e-06 30.0007 	-5.8023e-06 	1.67933e-06 30.0007 	-5.8023e-06 	1.67933e-06 30.0007 	-5.80231e-06 	1.67933e-06 30.0003 	-1.54432e-06 	1.67824e-06 30.0007 	-5.7342e-06 	1.75012e-06 30.0007 	-5.73421e-06 	1.75012e-06 30.0007 	-5.73421e-06 	1.75013e-06 30.0007 	-5.73421e-06 	1.75013e-06 30.0003 	-1.36156e-07 	1.52476e-06 30.0006 	-5.66906e-06 	1.80983e-06 30.0006 	-5.66907e-06 	1.80983e-06 30.0006 	-5.66907e-06 	1.80983e-06 30.0006 	-5.66908e-06 	1.80983e-06 30.0003 	-1.37715e-07 	1.63231e-06 30.0006 	-5.60899e-06 	1.85996e-06 30.0006 	-5.609e-06 	1.85996e-06 30.0006 	-5.609e-06 	1.85996e-06 30.0006 	-5.60901e-06 	1.85996e-06 30.0003 	-1.39192e-07 	1.72403e-06 30.0006 	-5.55471e-06 	1.90045e-06 30.0006 	-5.55472e-06 	1.90045e-06 30.0006 	-5.55472e-06 	1.90045e-06 30.0006 	-5.55472e-06 	1.90045e-06 30.0003 	-1.38902e-06 	2.07106e-06 30.0006 	-5.50589e-06 	1.93112e-06 30.0006 	-5.5059e-06 	1.93112e-06 30.0006 	-5.5059e-06 	1.93112e-06 30.0006 	-5.50591e-06 	1.93112e-06 30.0003 	-1.362e-06 	2.131e-06 30.0006 	-5.46215e-06 	1.95185e-06 30.0006 	-5.46215e-06 	1.95186e-06 30.0006 	-5.46216e-06 	1.95186e-06 30.0006 	-5.46216e-06 	1.95186e-06 30.0003 	-1.43245e-07 	1.9083e-06 30.0006 	-5.42336e-06 	1.9628e-06 30.0006 	-5.42336e-06 	1.9628e-06 30.0006 	-5.42336e-06 	1.9628e-06 30.0006 	-5.42337e-06 	1.9628e-06 30.0003 	-1.32362e-06 	2.20769e-06 30.0006 	-5.38941e-06 	1.96433e-06 30.0006 	-5.38942e-06 	1.96433e-06 30.0006 	-5.38942e-06 	1.96434e-06 30.0006 	-5.38942e-06 	1.96434e-06 30.0003 	-1.31184e-06 	2.22558e-06 30.0006 	-5.36025e-06 	1.95694e-06 30.0006 	-5.36026e-06 	1.95694e-06 30.0006 	-5.36026e-06 	1.95694e-06 30.0006 	-5.36026e-06 	1.95694e-06 30.0003 	-1.47149e-07 	1.96621e-06 30.0005 	-5.33578e-06 	1.94114e-06 30.0005 	-5.33578e-06 	1.94114e-06 30.0005 	-5.33579e-06 	1.94114e-06 30.0005 	-5.33579e-06 	1.94115e-06 30.0003 	-1.48413e-07 	1.96061e-06 30.0005 	-5.3158e-06 	1.91795e-06 30.0005 	-5.3158e-06 	1.91795e-06 30.0005 	-5.3158e-06 	1.91795e-06 30.0005 	-5.31581e-06 	1.91796e-06 30.0003 	-1.49632e-07 	1.94428e-06 30.0005 	-5.30021e-06 	1.88802e-06 30.0005 	-5.30021e-06 	1.88802e-06 30.0005 	-5.30022e-06 	1.88802e-06 30.0005 	-5.30022e-06 	1.88803e-06 30.0003 	-1.30931e-06 	2.17904e-06 30.0005 	-5.28888e-06 	1.85193e-06 30.0005 	-5.28889e-06 	1.85193e-06 30.0005 	-5.28889e-06 	1.85193e-06 30.0005 	-5.28889e-06 	1.85193e-06 30.0003 	-1.51992e-07 	1.88234e-06 30.0005 	-5.28162e-06 	1.81011e-06 30.0005 	-5.28163e-06 	1.81011e-06 30.0005 	-5.28163e-06 	1.81011e-06 30.0005 	-5.28163e-06 	1.81011e-06 30.0003 	-1.53118e-07 	1.83822e-06 30.0005 	-5.27819e-06 	1.76319e-06 30.0005 	-5.27819e-06 	1.76319e-06 30.0005 	-5.2782e-06 	1.76319e-06 30.0005 	-5.2782e-06 	1.76319e-06 30.0003 	-1.34855e-06 	2.04412e-06 30.0005 	-5.27838e-06 	1.71165e-06 30.0005 	-5.27838e-06 	1.71166e-06 30.0005 	-5.27839e-06 	1.71166e-06 30.0005 	-5.27839e-06 	1.71166e-06 30.0003 	-1.36862e-06 	1.98429e-06 30.0005 	-5.28194e-06 	1.65603e-06 30.0005 	-5.28194e-06 	1.65603e-06 30.0005 	-5.28194e-06 	1.65603e-06 30.0005 	-5.28195e-06 	1.65603e-06 30.0002 	-1.56351e-07 	1.66286e-06 30.0005 	-5.28874e-06 	1.59671e-06 30.0005 	-5.28875e-06 	1.59672e-06 30.0005 	-5.28875e-06 	1.59672e-06 30.0005 	-5.28875e-06 	1.59672e-06 30.0002 	-1.57409e-07 	1.59261e-06 30.0004 	-5.2987e-06 	1.53419e-06 30.0004 	-5.2987e-06 	1.53419e-06 30.0004 	-5.2987e-06 	1.53419e-06 30.0004 	-5.29871e-06 	1.53419e-06 30.0002 	-1.58489e-07 	1.51775e-06 30.0004 	-5.31166e-06 	1.46893e-06 30.0004 	-5.31166e-06 	1.46893e-06 30.0004 	-5.31166e-06 	1.46893e-06 30.0004 	-5.31167e-06 	1.46893e-06 30.0002 	-1.48029e-06 	1.69067e-06 30.0004 	-5.32722e-06 	1.40148e-06 30.0004 	-5.32722e-06 	1.40148e-06 30.0004 	-5.32723e-06 	1.40148e-06 30.0004 	-5.32723e-06 	1.40148e-06 30.0002 	-1.51483e-06 	1.60718e-06 30.0004 	-5.34511e-06 	1.33223e-06 30.0004 	-5.34511e-06 	1.33224e-06 30.0004 	-5.34512e-06 	1.33224e-06 30.0004 	-5.34512e-06 	1.33224e-06 30.0002 	-1.61751e-07 	1.27192e-06 30.0004 	-5.36512e-06 	1.26152e-06 30.0004 	-5.36512e-06 	1.26152e-06 30.0004 	-5.36512e-06 	1.26152e-06 30.0004 	-5.36513e-06 	1.26152e-06 30.0002 	-1.59015e-06 	1.43255e-06 30.0004 	-5.38696e-06 	1.18985e-06 30.0004 	-5.38696e-06 	1.18985e-06 30.0004 	-5.38696e-06 	1.18985e-06 30.0004 	-5.38696e-06 	1.18985e-06 30.0002 	-1.63064e-06 	1.34247e-06 30.0004 	-5.4106e-06 	1.11753e-06 30.0004 	-5.4106e-06 	1.11753e-06 30.0004 	-5.4106e-06 	1.11753e-06 30.0004 	-5.41061e-06 	1.11753e-06 30.0002 	-1.64776e-07 	1.00615e-06 30.0004 	-5.4357e-06 	1.04485e-06 30.0004 	-5.4357e-06 	1.04485e-06 30.0004 	-5.4357e-06 	1.04485e-06 30.0004 	-5.4357e-06 	1.04485e-06 30.0002 	-1.65717e-07 	9.15672e-07 30.0004 	-5.46137e-06 	9.72308e-07 30.0004 	-5.46137e-06 	9.72308e-07 30.0004 	-5.46138e-06 	9.72309e-07 30.0004 	-5.46138e-06 	9.72309e-07 30.0002 	-1.66624e-07 	8.2505e-07 30.0004 	-5.48744e-06 	8.99528e-07 30.0004 	-5.48744e-06 	8.99528e-07 30.0004 	-5.48744e-06 	8.99529e-07 30.0004 	-5.48744e-06 	8.99529e-07 30.0002 	-1.80755e-06 	9.75472e-07 30.0004 	-5.51425e-06 	8.25996e-07 30.0004 	-5.51425e-06 	8.25996e-07 30.0004 	-5.51425e-06 	8.25997e-07 30.0004 	-5.51425e-06 	8.25997e-07 30.0002 	-1.6834e-07 	6.43684e-07 30.0003 	-5.544e-06 	7.52037e-07 30.0003 	-5.544e-06 	7.52037e-07 30.0003 	-5.54401e-06 	7.52037e-07 30.0003 	-5.54401e-06 	7.52037e-07 30.0002 	-1.6916e-07 	5.52689e-07 30.0003 	-5.57849e-06 	6.77492e-07 30.0003 	-5.57849e-06 	6.77492e-07 30.0003 	-5.5785e-06 	6.77493e-07 30.0003 	-5.5785e-06 	6.77493e-07 30.0002 	-1.95593e-06 	7.01365e-07 30.0003 	-5.61537e-06 	6.04428e-07 30.0003 	-5.61537e-06 	6.04428e-07 30.0003 	-5.61537e-06 	6.04428e-07 30.0003 	-5.61537e-06 	6.04429e-07 30.0002 	-2.00812e-06 	6.11734e-07 30.0003 	-5.65142e-06 	5.34709e-07 30.0003 	-5.65142e-06 	5.34709e-07 30.0003 	-5.65143e-06 	5.34709e-07 30.0003 	-5.65143e-06 	5.34709e-07 30.0002 	-1.71651e-07 	2.80995e-07 30.0003 	-5.68253e-06 	4.67685e-07 30.0003 	-5.68254e-06 	4.67685e-07 30.0003 	-5.68254e-06 	4.67685e-07 30.0003 	-5.68254e-06 	4.67685e-07 30.0002 	-1.72478e-07 	1.97379e-07 30.0003 	-5.71096e-06 	4.0324e-07 30.0003 	-5.71096e-06 	4.0324e-07 30.0003 	-5.71096e-06 	4.0324e-07 30.0003 	-5.71096e-06 	4.0324e-07 30.0002 	-1.73278e-07 	1.16448e-07 30.0003 	-5.73913e-06 	3.39276e-07 30.0003 	-5.73913e-06 	3.39276e-07 30.0003 	-5.73914e-06 	3.39276e-07 30.0003 	-5.73914e-06 	3.39277e-07 30.0002 	-2.20138e-06 	2.74131e-07 30.0003 	-5.76712e-06 	2.75314e-07 30.0003 	-5.76712e-06 	2.75314e-07 30.0003 	-5.76712e-06 	2.75314e-07 30.0003 	-5.76712e-06 	2.75314e-07 30.0002 	-2.2483e-06 	1.96388e-07 30.0003 	-5.79382e-06 	2.10823e-07 30.0003 	-5.79382e-06 	2.10823e-07 30.0003 	-5.79382e-06 	2.10823e-07 30.0003 	-5.79382e-06 	2.10823e-07 30.0002 	-1.75429e-07 	-1.09103e-07 30.0003 	-5.8218e-06 	1.48808e-07 30.0003 	-5.8218e-06 	1.48808e-07 30.0003 	-5.8218e-06 	1.48808e-07 30.0003 	-5.8218e-06 	1.48808e-07 30.0002 	-2.34206e-06 	4.46983e-08 30.0003 	-5.85106e-06 	9.00129e-08 30.0003 	-5.85106e-06 	9.00129e-08 30.0003 	-5.85106e-06 	9.00129e-08 30.0003 	-5.85106e-06 	9.00129e-08 30.0002 	-2.38936e-06 	-2.90745e-08 30.0003 	-5.88149e-06 	3.48441e-08 30.0003 	-5.88149e-06 	3.48441e-08 30.0003 	-5.88149e-06 	3.48441e-08 30.0003 	-5.88149e-06 	3.48441e-08 30.0002 	-1.77411e-07 	-3.30732e-07 30.0003 	-5.91316e-06 	-1.70459e-08 30.0003 	-5.91316e-06 	-1.70459e-08 30.0003 	-5.91316e-06 	-1.70459e-08 30.0003 	-5.91316e-06 	-1.70459e-08 30.0002 	-1.78023e-07 	-4.01771e-07 30.0003 	-5.94629e-06 	-6.90273e-08 30.0003 	-5.94629e-06 	-6.90273e-08 30.0003 	-5.94629e-06 	-6.90273e-08 30.0003 	-5.94629e-06 	-6.90273e-08 30.0002 	-1.78629e-07 	-4.67046e-07 30.0003 	-5.97826e-06 	-1.23289e-07 30.0003 	-5.97826e-06 	-1.23289e-07 30.0003 	-5.97826e-06 	-1.23289e-07 30.0003 	-5.97826e-06 	-1.23289e-07 30.0002 	-2.58087e-06 	-3.01356e-07 30.0003 	-6.00605e-06 	-1.77934e-07 30.0003 	-6.00604e-06 	-1.77934e-07 30.0003 	-6.00604e-06 	-1.77934e-07 30.0003 	-6.00604e-06 	-1.77934e-07 30.0002 	-1.79818e-07 	-5.8486e-07 30.0003 	-6.03017e-06 	-2.29192e-07 30.0003 	-6.03017e-06 	-2.29192e-07 30.0003 	-6.03017e-06 	-2.29192e-07 30.0003 	-6.03017e-06 	-2.29192e-07 30.0002 	-1.80405e-07 	-6.42125e-07 30.0003 	-6.05342e-06 	-2.76156e-07 30.0003 	-6.05342e-06 	-2.76156e-07 30.0003 	-6.05342e-06 	-2.76156e-07 30.0003 	-6.05341e-06 	-2.76156e-07 30.0002 	-2.70894e-06 	-4.78958e-07 30.0003 	-6.07728e-06 	-3.19634e-07 30.0003 	-6.07728e-06 	-3.19634e-07 30.0003 	-6.07728e-06 	-3.19634e-07 30.0003 	-6.07728e-06 	-3.19634e-07 30.0002 	-2.74997e-06 	-5.34003e-07 30.0003 	-6.10147e-06 	-3.61171e-07 30.0003 	-6.10147e-06 	-3.61171e-07 30.0003 	-6.10147e-06 	-3.61171e-07 30.0003 	-6.10147e-06 	-3.61171e-07 30.0002 	-1.82141e-07 	-8.03765e-07 30.0003 	-6.12551e-06 	-4.01368e-07 30.0003 	-6.12551e-06 	-4.01368e-07 30.0003 	-6.12551e-06 	-4.01368e-07 30.0003 	-6.12551e-06 	-4.01368e-07 30.0001 	-1.8269e-07 	-8.53085e-07 30.0003 	-6.14891e-06 	-4.40362e-07 30.0003 	-6.14891e-06 	-4.40362e-07 30.0003 	-6.14891e-06 	-4.40362e-07 30.0003 	-6.14891e-06 	-4.40362e-07 30.0001 	-1.8323e-07 	-9.00295e-07 30.0003 	-6.17158e-06 	-4.77981e-07 30.0003 	-6.17158e-06 	-4.77981e-07 30.0003 	-6.17157e-06 	-4.77981e-07 30.0003 	-6.17157e-06 	-4.77981e-07 30.0001 	-2.90946e-06 	-7.31435e-07 30.0003 	-6.19338e-06 	-5.14194e-07 30.0003 	-6.19338e-06 	-5.14194e-07 30.0003 	-6.19338e-06 	-5.14194e-07 30.0003 	-6.19338e-06 	-5.14194e-07 30.0001 	-2.94734e-06 	-7.75563e-07 30.0003 	-6.21427e-06 	-5.4882e-07 30.0003 	-6.21427e-06 	-5.4882e-07 30.0003 	-6.21426e-06 	-5.4882e-07 30.0003 	-6.21426e-06 	-5.4882e-07 30.0001 	-1.84745e-07 	-1.02951e-06 30.0003 	-6.23435e-06 	-5.82039e-07 30.0003 	-6.23434e-06 	-5.82039e-07 30.0003 	-6.23434e-06 	-5.82039e-07 30.0003 	-6.23434e-06 	-5.82039e-07 30.0001 	-3.02032e-06 	-8.57453e-07 30.0003 	-6.25363e-06 	-6.13879e-07 30.0003 	-6.25363e-06 	-6.13879e-07 30.0003 	-6.25363e-06 	-6.13879e-07 30.0003 	-6.25363e-06 	-6.13879e-07 30.0001 	-3.05542e-06 	-8.9546e-07 30.0003 	-6.27213e-06 	-6.44403e-07 30.0003 	-6.27212e-06 	-6.44402e-07 30.0003 	-6.27212e-06 	-6.44402e-07 30.0003 	-6.27212e-06 	-6.44402e-07 30.0001 	-1.86168e-07 	-1.14083e-06 30.0003 	-6.28981e-06 	-6.73604e-07 30.0003 	-6.28981e-06 	-6.73604e-07 30.0003 	-6.28981e-06 	-6.73604e-07 30.0003 	-6.28981e-06 	-6.73603e-07 30.0001 	-1.86614e-07 	-1.17459e-06 30.0003 	-6.30684e-06 	-7.01422e-07 30.0003 	-6.30684e-06 	-7.01421e-07 30.0003 	-6.30683e-06 	-7.01421e-07 30.0003 	-6.30683e-06 	-7.01421e-07 30.0001 	-1.87066e-07 	-1.20667e-06 30.0003 	-6.32294e-06 	-7.27851e-07 30.0003 	-6.32293e-06 	-7.27851e-07 30.0003 	-6.32293e-06 	-7.27851e-07 30.0003 	-6.32293e-06 	-7.27851e-07 30.0001 	-3.18687e-06 	-1.03098e-06 30.0003 	-6.33821e-06 	-7.52963e-07 30.0003 	-6.33821e-06 	-7.52963e-07 30.0003 	-6.33821e-06 	-7.52962e-07 30.0003 	-6.33821e-06 	-7.52962e-07 30.0001 	-1.87939e-07 	-1.26596e-06 30.0003 	-6.35273e-06 	-7.76931e-07 30.0003 	-6.35273e-06 	-7.76931e-07 30.0003 	-6.35273e-06 	-7.7693e-07 30.0003 	-6.35273e-06 	-7.7693e-07 30.0001 	-1.8835e-07 	-1.29331e-06 30.0003 	-6.36655e-06 	-7.99801e-07 30.0003 	-6.36654e-06 	-7.99801e-07 30.0003 	-6.36654e-06 	-7.998e-07 30.0003 	-6.36654e-06 	-7.998e-07 30.0001 	-3.27628e-06 	-1.11603e-06 30.0003 	-6.37964e-06 	-8.21527e-07 30.0003 	-6.37963e-06 	-8.21527e-07 30.0003 	-6.37963e-06 	-8.21527e-07 30.0003 	-6.37963e-06 	-8.21526e-07 30.0001 	-3.30439e-06 	-1.14151e-06 30.0003 	-6.39191e-06 	-8.41965e-07 30.0003 	-6.39191e-06 	-8.41965e-07 30.0003 	-6.39191e-06 	-8.41965e-07 30.0003 	-6.39191e-06 	-8.41964e-07 30.0001 	-1.8955e-07 	-1.36686e-06 30.0003 	-6.40355e-06 	-8.61356e-07 30.0003 	-6.40354e-06 	-8.61356e-07 30.0003 	-6.40354e-06 	-8.61356e-07 30.0003 	-6.40354e-06 	-8.61355e-07 30.0001 	-1.89935e-07 	-1.38873e-06 30.0003 	-6.41449e-06 	-8.79793e-07 30.0003 	-6.41449e-06 	-8.79793e-07 30.0003 	-6.41449e-06 	-8.79792e-07 30.0003 	-6.41449e-06 	-8.79792e-07 30.0001 	-1.90316e-07 	-1.40938e-06 30.0003 	-6.42475e-06 	-8.97275e-07 30.0003 	-6.42474e-06 	-8.97275e-07 30.0003 	-6.42474e-06 	-8.97275e-07 30.0003 	-6.42474e-06 	-8.97274e-07 30.0001 	-3.4087e-06 	-1.23051e-06 30.0003 	-6.43433e-06 	-9.1386e-07 30.0003 	-6.43433e-06 	-9.13859e-07 30.0003 	-6.43432e-06 	-9.13859e-07 30.0003 	-6.43432e-06 	-9.13859e-07 30.0001 	-3.43283e-06 	-1.24984e-06 30.0003 	-6.4432e-06 	-9.29548e-07 30.0003 	-6.4432e-06 	-9.29548e-07 30.0003 	-6.44319e-06 	-9.29547e-07 30.0003 	-6.44319e-06 	-9.29547e-07 30.0001 	-1.91394e-07 	-1.46455e-06 30.0003 	-6.45146e-06 	-9.44403e-07 30.0003 	-6.45146e-06 	-9.44402e-07 30.0003 	-6.45145e-06 	-9.44402e-07 30.0003 	-6.45145e-06 	-9.44402e-07 30.0001 	-3.47889e-06 	-1.28533e-06 30.0003 	-6.45914e-06 	-9.58406e-07 30.0003 	-6.45914e-06 	-9.58406e-07 30.0003 	-6.45914e-06 	-9.58406e-07 30.0003 	-6.45913e-06 	-9.58405e-07 30.0001 	-3.50094e-06 	-1.30159e-06 30.0003 	-6.46623e-06 	-9.71698e-07 30.0003 	-6.46622e-06 	-9.71697e-07 30.0003 	-6.46622e-06 	-9.71697e-07 30.0003 	-6.466