# vtk DataFile Version 2.0
track0
ASCII
DATASET POLYDATA
POINTS 15780 float
-1.001 -0.05 0.0011
-1.0008 -0.05 0.0011
-1.0006 -0.05 0.0011
-1.0004 -0.05 0.0011
-1.0002 -0.05 0.0011
-1 -0.05 0.0011
-0.9875 -0.05 0.0011
-0.975 -0.05 0.0011
-0.9625 -0.05 0.0011
-0.95 -0.05 0.0011
-0.9375 -0.05 0.00109999
-0.925 -0.05 0.00109999
-0.9125 -0.05 0.00109999
-0.9 -0.05 0.00109999
-0.8875 -0.05 0.00109999
-0.875 -0.05 0.00109999
-0.8625 -0.05 0.00109999
-0.85 -0.05 0.00109999
-0.8375 -0.05 0.00109998
-0.825 -0.0500001 0.00109998
-0.8125 -0.0500001 0.00109998
-0.8 -0.0500001 0.00109998
-0.7875 -0.0500001 0.00109998
-0.775 -0.0500001 0.00109998
-0.7625 -0.0500001 0.00109998
-0.75 -0.0500001 0.00109998
-0.7375 -0.0500001 0.00109997
-0.725 -0.0500001 0.00109997
-0.7125 -0.0500001 0.00109997
-0.7 -0.0500001 0.00109997
-0.6875 -0.0500001 0.00109997
-0.675 -0.0500001 0.00109997
-0.6625 -0.0500001 0.00109997
-0.65 -0.0500001 0.00109996
-0.6375 -0.0500001 0.00109996
-0.625 -0.0500001 0.00109996
-0.6125 -0.0500001 0.00109996
-0.6 -0.0500001 0.00109996
-0.5875 -0.0500001 0.00109996
-0.575 -0.0500001 0.00109996
-0.5625 -0.0500001 0.00109996
-0.55 -0.0500001 0.00109995
-0.5375 -0.0500001 0.00109995
-0.525 -0.0500001 0.00109995
-0.5125 -0.0500001 0.00109995
-0.5 -0.0500001 0.00109995
-0.4875 -0.0500001 0.00109995
-0.475 -0.0500001 0.00109995
-0.4625 -0.0500001 0.00109994
-0.45 -0.0500002 0.00109994
-0.4375 -0.0500002 0.00109994
-0.425 -0.0500002 0.00109994
-0.4125 -0.0500002 0.00109994
-0.4 -0.0500002 0.00109994
-0.3875 -0.0500002 0.00109994
-0.375 -0.0500002 0.00109994
-0.3625 -0.0500002 0.00109993
-0.35 -0.0500002 0.00109993
-0.3375 -0.0500002 0.00109993
-0.325 -0.0500002 0.00109993
-0.3125 -0.0500002 0.00109993
-0.3 -0.0500002 0.00109993
-0.2875 -0.0500002 0.00109993
-0.275 -0.0500002 0.00109993
-0.2625 -0.0500002 0.00109992
-0.25 -0.0500002 0.00109992
-0.2375 -0.0500002 0.00109992
-0.225 -0.0500002 0.00109992
-0.2125 -0.0500002 0.00109992
-0.2 -0.0500002 0.00109992
-0.1875 -0.0500002 0.00109992
-0.175 -0.0500002 0.00109992
-0.1625 -0.0500002 0.00109991
-0.15 -0.0500002 0.00109991
-0.1375 -0.0500002 0.00109991
-0.125 -0.0500002 0.00109991
-0.1125 -0.0500002 0.00109991
-0.1 -0.0500002 0.00109991
-0.0875 -0.0500002 0.00109991
-0.075 -0.0500002 0.00109991
-0.0625 -0.0500002 0.00109991
-0.05 -0.0500003 0.00109991
-0.0375 -0.0500003 0.0010999
-0.025 -0.0500003 0.0010999
-0.0125 -0.0500003 0.0010999
2.10607e-13 -0.0500003 0.0010999
0.0125 -0.0500003 0.0010999
0.025 -0.0500003 0.0010999
0.0375 -0.0500003 0.0010999
0.05 -0.0500003 0.0010999
0.0625 -0.0500003 0.0010999
0.075 -0.0500003 0.0010999
0.0875 -0.0500003 0.0010999
0.1 -0.0500003 0.00109989
0.1125 -0.0500003 0.00109989
0.125 -0.0500003 0.00109989
0.1375 -0.0500003 0.00109989
0.15 -0.0500003 0.00109989
0.1625 -0.0500003 0.00109989
0.175 -0.0500003 0.00109989
0.1875 -0.0500003 0.00109989
0.2 -0.0500003 0.00109989
0.2125 -0.0500003 0.00109989
0.225 -0.0500003 0.00109989
0.2375 -0.0500003 0.00109989
0.25 -0.0500003 0.00109989
0.2625 -0.0500003 0.00109988
0.275 -0.0500003 0.00109988
0.2875 -0.0500003 0.00109988
0.3 -0.0500003 0.00109988
0.3125 -0.0500003 0.00109988
0.325 -0.0500003 0.00109988
0.3375 -0.0500003 0.00109988
0.35 -0.0500003 0.00109988
0.3625 -0.0500003 0.00109988
0.375 -0.0500003 0.00109988
0.3875 -0.0500003 0.00109988
0.4 -0.0500004 0.00109988
0.4125 -0.0500004 0.00109988
0.425 -0.0500004 0.00109988
0.4375 -0.0500004 0.00109988
0.45 -0.0500004 0.00109988
0.4625 -0.0500004 0.00109988
0.475 -0.0500004 0.00109988
0.4875 -0.0500004 0.00109988
0.5 -0.0500004 0.00109988
0.5125 -0.0500004 0.00109988
0.525 -0.0500004 0.00109988
0.5375 -0.0500004 0.00109988
0.55 -0.0500004 0.00109988
0.5625 -0.0500004 0.00109988
0.575 -0.0500004 0.00109987
0.5875 -0.0500004 0.00109987
0.6 -0.0500004 0.00109987
0.6125 -0.0500004 0.00109987
0.625 -0.0500004 0.00109987
0.6375 -0.0500004 0.00109987
0.65 -0.0500004 0.00109987
0.6625 -0.0500004 0.00109987
0.675 -0.0500004 0.00109987
0.6875 -0.0500004 0.00109987
0.7 -0.0500004 0.00109987
0.7125 -0.0500004 0.00109987
0.725 -0.0500004 0.00109987
0.7375 -0.0500004 0.00109987
0.75 -0.0500004 0.00109987
0.7625 -0.0500004 0.00109987
0.775 -0.0500004 0.00109987
0.7875 -0.0500004 0.00109987
0.8 -0.0500004 0.00109987
0.8125 -0.0500004 0.00109987
0.825 -0.0500004 0.00109987
0.8375 -0.0500004 0.00109987
0.85 -0.0500004 0.00109987
0.8625 -0.0500004 0.00109987
0.875 -0.0500004 0.00109987
0.8875 -0.0500004 0.00109987
0.9 -0.0500004 0.00109987
0.9125 -0.0500005 0.00109988
0.925 -0.0500005 0.00109988
0.9375 -0.0500005 0.00109988
0.95 -0.0500005 0.00109988
0.9625 -0.0500005 0.00109988
0.975 -0.0500005 0.00109988
0.9875 -0.0500005 0.00109988
1 -0.0500005 0.00109988
1.0125 -0.0500005 0.00109988
1.025 -0.0500005 0.00109988
1.0375 -0.0500005 0.00109988
1.05 -0.0500005 0.00109988
1.0625 -0.0500005 0.00109988
1.075 -0.0500005 0.00109988
1.0875 -0.0500005 0.00109988
1.1 -0.0500005 0.00109988
1.1125 -0.0500005 0.00109988
1.125 -0.0500005 0.00109988
1.1375 -0.0500005 0.00109988
1.15 -0.0500005 0.00109988
1.1625 -0.0500005 0.00109988
1.175 -0.0500005 0.00109988
1.1875 -0.0500005 0.00109988
1.2 -0.0500005 0.00109988
1.2125 -0.0500005 0.00109988
1.225 -0.0500005 0.00109988
1.2375 -0.0500005 0.00109989
1.25 -0.0500005 0.00109989
1.2625 -0.0500005 0.00109989
1.275 -0.0500005 0.00109989
1.2875 -0.0500005 0.00109989
1.3 -0.0500005 0.00109989
1.3125 -0.0500005 0.00109989
1.325 -0.0500005 0.00109989
1.3375 -0.0500005 0.00109989
1.35 -0.0500005 0.00109989
1.3625 -0.0500005 0.00109989
1.375 -0.0500005 0.00109989
1.3875 -0.0500005 0.00109989
1.4 -0.0500005 0.00109989
1.4125 -0.0500005 0.00109989
1.425 -0.0500005 0.00109989
1.4375 -0.0500005 0.0010999
1.45 -0.0500005 0.0010999
1.4625 -0.0500005 0.0010999
1.475 -0.0500005 0.0010999
1.4875 -0.0500005 0.0010999
1.5 -0.0500006 0.0010999
1.5125 -0.0500006 0.0010999
1.525 -0.0500006 0.0010999
1.5375 -0.0500006 0.0010999
1.55 -0.0500006 0.0010999
1.5625 -0.0500006 0.0010999
1.575 -0.0500006 0.0010999
1.5875 -0.0500006 0.0010999
1.6 -0.0500006 0.0010999
1.6125 -0.0500006 0.00109991
1.625 -0.0500006 0.00109991
1.6375 -0.0500006 0.00109991
1.65 -0.0500006 0.00109991
1.6625 -0.0500006 0.00109991
1.675 -0.0500006 0.00109991
1.6875 -0.0500006 0.00109991
1.7 -0.0500006 0.00109991
1.7125 -0.0500006 0.00109991
1.725 -0.0500006 0.00109991
1.7375 -0.0500006 0.00109991
1.75 -0.0500006 0.00109991
1.7625 -0.0500006 0.00109992
1.775 -0.0500006 0.00109992
1.7875 -0.0500006 0.00109992
1.8 -0.0500006 0.00109992
1.8125 -0.0500006 0.00109992
1.825 -0.0500006 0.00109992
1.8375 -0.0500006 0.00109992
1.85 -0.0500006 0.00109992
1.8625 -0.0500006 0.00109992
1.875 -0.0500006 0.00109992
1.8875 -0.0500006 0.00109992
1.9 -0.0500006 0.00109992
1.9125 -0.0500006 0.00109993
1.925 -0.0500006 0.00109993
1.9375 -0.0500006 0.00109993
1.95 -0.0500006 0.00109993
1.9625 -0.0500006 0.00109993
1.975 -0.0500006 0.00109993
1.9875 -0.0500006 0.00109993
2 -0.0500006 0.00109993
2.0125 -0.0500006 0.00109993
2.025 -0.0500006 0.00109993
2.0375 -0.0500006 0.00109993
2.05 -0.0500006 0.00109993
2.0625 -0.0500006 0.00109994
2.075 -0.0500006 0.00109994
2.0875 -0.0500006 0.00109994
2.1 -0.0500006 0.00109994
2.1125 -0.0500006 0.00109994
2.125 -0.0500006 0.00109994
2.1375 -0.0500006 0.00109994
2.15 -0.0500006 0.00109994
2.1625 -0.0500006 0.00109994
2.175 -0.0500007 0.00109994
2.1875 -0.0500007 0.00109994
2.2 -0.0500007 0.00109994
2.2125 -0.0500007 0.00109994
2.225 -0.0500007 0.00109995
2.2375 -0.0500007 0.00109995
2.25 -0.0500007 0.00109995
2.2625 -0.0500007 0.00109995
2.275 -0.0500007 0.00109995
2.2875 -0.0500007 0.00109995
2.3 -0.0500007 0.00109995
2.3125 -0.0500007 0.00109995
2.325 -0.0500007 0.00109995
2.3375 -0.0500007 0.00109995
2.35 -0.0500007 0.00109995
2.3625 -0.0500007 0.00109995
2.375 -0.0500007 0.00109995
2.3875 -0.0500007 0.00109996
2.4 -0.0500007 0.00109996
2.4125 -0.0500007 0.00109996
2.425 -0.0500007 0.00109996
2.4375 -0.0500007 0.00109996
2.45 -0.0500007 0.00109996
2.4625 -0.0500007 0.00109996
2.475 -0.0500007 0.00109996
2.4875 -0.0500007 0.00109996
2.5 -0.0500007 0.00109996
2.5125 -0.0500007 0.00109996
2.525 -0.0500007 0.00109996
2.5375 -0.0500007 0.00109996
2.55 -0.0500007 0.00109996
2.5625 -0.0500007 0.00109997
2.575 -0.0500007 0.00109997
2.5875 -0.0500007 0.00109997
2.6 -0.0500007 0.00109997
2.6125 -0.0500007 0.00109997
2.625 -0.0500007 0.00109997
2.6375 -0.0500007 0.00109997
2.65 -0.0500007 0.00109997
2.6625 -0.0500007 0.00109997
2.675 -0.0500007 0.00109997
2.6875 -0.0500007 0.00109997
2.7 -0.0500007 0.00109997
2.7125 -0.0500007 0.00109997
2.725 -0.0500007 0.00109997
2.7375 -0.0500007 0.00109997
2.75 -0.0500007 0.00109997
2.7625 -0.0500007 0.00109998
2.775 -0.0500007 0.00109998
2.7875 -0.0500007 0.00109998
2.8 -0.0500007 0.00109998
2.8125 -0.0500007 0.00109998
2.825 -0.0500007 0.00109998
2.8375 -0.0500007 0.00109998
2.85 -0.0500007 0.00109998
2.8625 -0.0500008 0.00109998
2.875 -0.0500008 0.00109998
2.8875 -0.0500008 0.00109998
2.9 -0.0500008 0.00109998
2.9125 -0.0500008 0.00109998
2.925 -0.0500008 0.00109998
2.9375 -0.0500008 0.00109998
2.95 -0.0500008 0.00109998
2.9625 -0.0500008 0.00109998
2.975 -0.0500008 0.00109998
2.9875 -0.0500008 0.00109998
3 -0.0500008 0.00109998
3.0125 -0.0500008 0.00109999
3.025 -0.0500008 0.00109999
3.0375 -0.0500008 0.00109999
3.05 -0.0500008 0.00109999
3.0625 -0.0500008 0.00109999
3.075 -0.0500008 0.00109999
3.0875 -0.0500008 0.00109999
3.1 -0.0500008 0.00109999
3.1125 -0.0500008 0.00109999
3.125 -0.0500008 0.00109999
3.1375 -0.0500008 0.00109999
3.15 -0.0500008 0.00109999
3.1625 -0.0500008 0.00109999
3.175 -0.0500008 0.00109999
3.1875 -0.0500008 0.00109999
3.2 -0.0500008 0.00109999
3.2125 -0.0500008 0.00109999
3.225 -0.0500008 0.00109999
3.2375 -0.0500008 0.00109999
3.25 -0.0500008 0.00109999
3.2625 -0.0500008 0.00109999
3.275 -0.0500008 0.00109999
3.2875 -0.0500008 0.00109999
3.3 -0.0500008 0.00109999
3.3125 -0.0500008 0.00109999
3.325 -0.0500008 0.00109999
3.3375 -0.0500008 0.00109999
3.35 -0.0500008 0.0011
3.3625 -0.0500008 0.0011
[...]
POINT_DATA 15780
 FIELD attributes 2
p 1 15780 float
-0.0310985 -0.0311145 -0.0311306 -0.0311466 -0.0311626 -0.0311787 -0.0321102 -0.0330339 -0.0339576 -0.0348814 -0.0359018 -0.0369657 -0.038032 -0.0390984 -0.0401648 -0.0411844 -0.0421679 -0.0431327 -0.0440975 -0.0450623 -0.0459754 -0.0468733 -0.0477758 -0.0486784 -0.0495809 -0.0504777 -0.0513782 -0.0522797 -0.0531813 -0.0540828 -0.0549836 -0.0558911 -0.056799 -0.057707 -0.058615 -0.0595224 -0.060422 -0.0613195 -0.062217 -0.0631145 -0.0640091 -0.0648881 -0.0657653 -0.0666425 -0.0675196 -0.0683947 -0.0692521 -0.0701074 -0.0709627 -0.071818 -0.0726714 -0.073506 -0.074338 -0.0751701 -0.0760021 -0.0768318 -0.0776401 -0.0784453 -0.0792504 -0.0800556 -0.0808579 -0.0816361 -0.0824103 -0.0831846 -0.0839589 -0.0847295 -0.0854737 -0.0862136 -0.0869536 -0.0876935 -0.0884296 -0.0891369 -0.0898395 -0.0905421 -0.0912446 -0.0919426 -0.0926099 -0.093272 -0.0939342 -0.0945964 -0.0952535 -0.095878 -0.0964968 -0.0971157 -0.0977345 -0.0983478 -0.0989268 -0.0995 -0.100073 -0.100646 -0.101214 -0.101746 -0.102272 -0.102799 -0.103325 -0.103845 -0.104329 -0.104807 -0.105285 -0.105762 -0.106234 -0.106668 -0.107095 -0.107521 -0.107948 -0.108368 -0.108748 -0.109121 -0.109494 -0.109867 -0.110232 -0.110556 -0.110873 -0.11119 -0.111507 -0.111817 -0.112085 -0.112345 -0.112605 -0.112865 -0.113118 -0.113328 -0.113531 -0.113734 -0.113936 -0.114131 -0.114283 -0.114427 -0.114571 -0.114716 -0.114851 -0.114944 -0.11503 -0.115115 -0.115201 -0.115278 -0.115314 -0.115343 -0.115372 -0.115401 -0.115422 -0.115404 -0.115378 -0.115353 -0.115327 -0.115295 -0.115224 -0.115146 -0.115069 -0.114991 -0.114906 -0.114783 -0.114654 -0.114524 -0.114395 -0.114258 -0.114084 -0.113903 -0.113722 -0.113541 -0.113352 -0.113128 -0.112898 -0.112667 -0.112437 -0.112199 -0.111929 -0.111652 -0.111375 -0.111099 -0.110815 -0.110501 -0.11018 -0.109859 -0.109539 -0.109211 -0.108855 -0.108493 -0.10813 -0.107768 -0.107399 -0.107002 -0.1066 -0.106198 -0.105796 -0.105389 -0.104955 -0.104517 -0.104079 -0.10364 -0.103197 -0.10273 -0.10226 -0.101789 -0.101319 -0.100844 -0.10035 -0.0998516 -0.0993535 -0.0988555 -0.0983533 -0.0978344 -0.097312 -0.0967895 -0.0962671 -0.0957408 -0.0951999 -0.0946555 -0.0941111 -0.0935668 -0.0930187 -0.0924577 -0.091894 -0.0913302 -0.0907664 -0.0901995 -0.0896218 -0.0890416 -0.0884614 -0.0878813 -0.0872981 -0.0867067 -0.0861133 -0.0855199 -0.0849265 -0.0843308 -0.083729 -0.0831254 -0.0825219 -0.0819184 -0.0813128 -0.0807031 -0.0800923 -0.0794815 -0.0788707 -0.0782584 -0.077644 -0.0770286 -0.0764132 -0.0757978 -0.0751811 -0.0745641 -0.0739467 -0.0733293 -0.0727119 -0.0720937 -0.071477 -0.07086 -0.070243 -0.069626 -0.0690085 -0.0683939 -0.0677796 -0.0671652 -0.0665509 -0.0659365 -0.0653265 -0.0647168 -0.0641071 -0.0634974 -0.0628878 -0.0622838 -0.0616806 -0.0610774 -0.0604742 -0.0598715 -0.0592756 -0.0586805 -0.0580855 -0.0574905 -0.0568961 -0.0563096 -0.0557244 -0.0551391 -0.0545538 -0.0539696 -0.0533942 -0.05282 -0.0522459 -0.0516718 -0.0510988 -0.0505354 -0.0499736 -0.0494118 -0.0488501 -0.0482897 -0.0477397 -0.0471913 -0.046643 -0.0460946 -0.0455477 -0.0450118 -0.0444777 -0.0439437 -0.0434097 -0.0428774 -0.0423565 -0.0418376 -0.0413186 -0.0407997 -0.0402825 -0.0397772 -0.039274 -0.0387708 -0.0382676 -0.0377664 -0.0372773 -0.0367903 -0.0363033 -0.0358164 -0.0353314 -0.0348588 -0.0343884 -0.0339181 -0.0334477 -0.0329795 -0.0325238 -0.0320703 -0.0316169 -0.0311634 -0.0307121 -0.0302733 -0.0298369 -0.0294005 -0.0289641 -0.02853 -0.0281083 -0.0276889 -0.0272696 -0.0268503 -0.0264333 -0.0260287 -0.0256264 -0.0252242 -0.0248219 -0.0244221 -0.0240346 -0.0236495 -0.0232644 -0.0228792 -0.0224965 -0.0221261 -0.0217582 -0.0213904 -0.0210225 -0.020657 -0.0203038 -0.0199531 -0.0196023 -0.0192516 -0.0189032 -0.0185665 -0.0182325 -0.0178985 -0.0175645 -0.0172329 -0.0169125 -0.0165946 -0.0162767 -0.0159588 -0.0156434 -0.0153388 -0.0150365 -0.0147342 -0.0144319 -0.0141321 -0.0138427 -0.0135556 -0.0132686 -0.0129815 -0.012697 -0.0124227 -0.0121506 -0.0118785 -0.0116064 -0.0113366 -0.0110769 -0.0108195 -0.010562 -0.0103046 -0.0100494 -0.00980406 -0.0095609 -0.00931774 -0.00907459 -0.00883363 -0.00860215 -0.00837272 -0.00814328 -0.00791385 -0.00768649 -0.00746813 -0.00725189 -0.00703564 -0.00681939 -0.00660522 -0.00639969 -0.00619619 -0.00599269 -0.00578919 -0.00558769 -0.00539446 -0.00520335 -0.00501223 -0.00482112 -0.0046321 -0.00445105 -0.00427212 -0.00409318 -0.00391425 -0.00373736 -0.00356812 -0.00340094 -0.00323376 -0.00306657 -0.00290144 -0.00274338 -0.00258721 -0.00243103 -0.00227485 -0.0021207 -0.00197319 -0.00182721 -0.00168122 -0.00153524 -0.00139103 -0.00125307 -0.00111671 -0.000980351 -0.00084399 -0.000709404 -0.000580727 -0.000453659 -0.000326591 -0.000199524 -7.41016e-05 4.55688e-05 0.000163624 0.000281679 0.000399733 0.00051617 0.000627159 0.000736562 0.000845965 0.000955368 0.00106315 0.00116589 0.00126708 0.00136827 0.00146946 0.00156907 0.00166396 0.0017574 0.00185083 0.00194427 0.00203619 0.00212373 0.00220983 0.00229594 0.00238205 0.00246668 0.00254719 0.00262636 0.00270554 0.00278471 0.00286249 0.00293643 0.00300906 0.00308168 0.00315431 0.00322554 0.00329324 0.0033597 0.00342615 0.0034926 0.00355776 0.00361961 0.00368025 0.00374089 0.00380153 0.00386088 0.00391721 0.00397239 0.00402757 0.00408275 0.00413672 0.00418792 0.00423798 0.00428804 0.00433809 0.00438695 0.00443326 0.00447849 0.00452373 0.00456896 0.00461307 0.00465484 0.00469554 0.00473625 0.00477695 0.00481655 0.004854 0.00489047 0.00492694 0.00496341 0.00499882 0.00503232 0.00506483 0.00509734 0.00512985 0.00516132 0.00519106 0.00521987 0.00524868 0.0052775 0.00530535 0.00533162 0.00535699 0.00538236 0.00540772 0.00543213 0.00545513 0.00547729 0.00549945 0.00552161 0.00554287 0.00556291 0.00558209 0.00560128 0.00562047 0.00563876 0.00565598 0.00567242 0.00568885 0.00570529 0.00572088 0.00573556 0.00574945 0.00576335 0.00577724 0.0057903 0.00580257 0.00581411 0.00582565 0.0058372 0.00584797 0.00585807 0.00586745 0.00587683 0.00588621 0.00589481 0.00590288 0.00591028 0.00591767 0.00592507 0.00593174 0.00593799 0.00594357 0.00594914 0.00595472 0.00595958 0.00596412 0.00596804 0.00597196 0.00597588 0.00597913 0.00598217 0.00598458 0.005987 0.00598941 0.00599115 0.00599278 0.00599383 0.00599487 0.00599592 0.00599633 0.00599673 0.00599653 0.00599633 0.00599614 0.00599531 0.00599455 0.00599325 0.00599194 0.00599064 0.00598875 0.00598701 0.00598472 0.00598243 0.00598014 0.00597727 0.00597462 0.00597145 0.00596828 0.00596512 0.0059614 0.00595797 0.00595403 0.00595009 0.00594615 0.00594166 0.00593753 0.00593292 0.00592832 0.00592371 0.00591858 0.0059139 0.00590872 0.00590355 0.00589838 0.00589269 0.0058875 0.00588186 0.00587621 0.00587057 0.00586444 0.00585887 0.00585284 0.00584681 0.00584078 0.00583427 0.00582838 0.00582205 0.00581572 0.00580939 0.0058026 0.00579649 0.00578994 0.0057834 0.00577685 0.00576985 0.00576358 0.00575689 0.0057502 0.00574351 0.00573639 0.00573005 0.0057233 0.00571654 0.00570979 0.0057026 0.00569626 0.0056895 0.00568275 0.005676 0.00566883 0.00566256 0.00565588 0.00564919 0.00564251 0.00563543 0.00562928 0.00562273 0.00561619 0.00560965 0.0056027 0.00559675 0.0055904 0.00558406 0.00557771 0.00557098 0.00556528 0.00555919 0.0055531 0.00554702 0.00554055 0.00553515 0.00552938 0.0055236 0.00551783 0.00551168 0.00550665 0.00550124 0.00549583 0.00549041 0.00548462 0.00547999 0.00547497 0.00546996 0.00546495 0.00545957 0.00545537 0.00545078 0.0054462 0.00544161 0.00543664 0.00543286 0.00542869 0.00542452 0.00542035 0.00541582 0.00541242 0.00540861 0.0054048 0.00540099 0.00539678 0.00539358 0.00538993 0.00538629 0.00538264 0.00537858 0.00537517 0.00537125 0.00536733 0.00536341 0.00535901 0.0053541 0.00534837 0.00534265 0.00533692 0.00533041 0.00532162 0.00531241 0.0053032 0.00529399 0.00528429 0.00525817 0.00522651 0.00519486 0.0051632 0.00512666 0.00511518 0.00511783 0.00512048 0.00512313 0.00514874 0.00523234 0.00530837 0.00538773 0.00545069 0.0054963 0.00548927 0.00548543 0.0054816 0.00547778 0.00547625 0.00550312 0.00553079 0.00555846 0.00557813 0.00559908 0.00561301 0.00563185 0.00565072 0.00566959 0.00568391 0.00574679 0.0058118 0.0058768 0.00594181 0.00599831 0.00608974 0.00616584 0.00624194 0.00631804 0.00632317 0.00630854 0.00628916 0.00626977 0.00625039 0.0062405 0.00603965 0.00581809 0.00559652 0.00537496 0.00504759 0.0045676 0.00407372 0.00357984 0.00308596 0.00262187 0.00235211 0.00207481 0.0017975 0.0015202 0.00127287 0.00117427 0.00106925 0.000964233 0.000859212 0.000773571 0.00066766 0.000556193 0.000444725 0.000333256 0.000255273
-0.0319479 -0.031967 -0.0319861 -0.0320052 -0.0320243 -0.0320434 -0.0327443 -0.0336219 -0.0344045 -0.035167 -0.0362253 -0.037262 -0.0382523 -0.0392548 -0.0403142 -0.0412982 -0.0422594 -0.0432254 -0.044166 -0.0451012 -0.0460072 -0.0469052 -0.0478113 -0.0487172 -0.0496224 -0.0505274 -0.0514191 -0.0523229 -0.0532316 -0.0541413 -0.0550617 -0.0559668 -0.056879 -0.0577908 -0.0587003 -0.0596153 -0.0605167 -0.061415 -0.0623146 -0.0632145 -0.0641106 -0.0649917 -0.0658717 -0.0667513 -0.0676289 -0.0685048 -0.069363 -0.0702186 -0.0710768 -0.0719356 -0.0727921 -0.0736261 -0.0744615 -0.0752964 -0.0761287 -0.0769624 -0.0777697 -0.078575 -0.0793828 -0.080191 -0.0809978 -0.0817734 -0.0825506 -0.0833273 -0.0841017 -0.0848776 -0.0856184 -0.0863585 -0.0871007 -0.0878435 -0.0885859 -0.0892882 -0.0899934 -0.0906982 -0.0914008 -0.0921062 -0.0927675 -0.0934297 -0.0940939 -0.0947585 -0.0954243 -0.0960412 -0.0966623 -0.0972829 -0.0979017 -0.0985245 -0.0990935 -0.0996665 -0.100241 -0.100816 -0.101396 -0.101915 -0.102442 -0.10297 -0.103496 -0.10403 -0.104503 -0.10498 -0.105458 -0.105937 -0.106422 -0.106844 -0.107271 -0.107698 -0.108125 -0.108556 -0.108926 -0.109299 -0.109671 -0.110044 -0.110419 -0.110734 -0.11105 -0.111367 -0.111684 -0.112002 -0.112261 -0.112521 -0.112781 -0.11304 -0.1133 -0.113503 -0.113705 -0.113907 -0.114109 -0.114311 -0.114456 -0.114599 -0.114743 -0.114887 -0.11503 -0.115113 -0.115198 -0.115283 -0.115369 -0.115456 -0.11548 -0.115509 -0.115538 -0.115566 -0.1156 -0.115567 -0.115541 -0.115515 -0.11549 -0.11547 -0.115386 -0.115308 -0.115228 -0.115149 -0.115075 -0.114939 -0.114806 -0.114674 -0.114544 -0.114416 -0.11423 -0.114048 -0.113864 -0.113679 -0.1135 -0.113264 -0.11303 -0.112796 -0.112565 -0.112336 -0.112054 -0.111777 -0.111497 -0.111216 -0.11094 -0.110615 -0.110291 -0.109967 -0.109646 -0.109325 -0.10896 -0.108597 -0.108232 -0.107867 -0.107503 -0.1071 -0.106696 -0.106292 -0.10589 -0.105487 -0.105046 -0.104608 -0.104168 -0.103728 -0.103289 -0.102813 -0.10234 -0.101867 -0.101396 -0.100928 -0.100423 -0.0999238 -0.0994227 -0.098921 -0.098426 -0.0978969 -0.0973707 -0.096845 -0.0963221 -0.0958018 -0.0952522 -0.0947075 -0.0941601 -0.0936122 -0.0930691 -0.0925006 -0.0919335 -0.0913669 -0.0908028 -0.0902397 -0.0896551 -0.0890746 -0.0884918 -0.0879084 -0.087329 -0.0867312 -0.0861348 -0.0855388 -0.0849451 -0.0843524 -0.0837447 -0.0831409 -0.0825349 -0.0819285 -0.0813257 -0.0807109 -0.0800973 -0.0794842 -0.0788731 -0.078263 -0.0776438 -0.0770282 -0.0764106 -0.0757926 -0.0751779 -0.0745569 -0.0739371 -0.0733176 -0.0727 -0.0720832 -0.0714628 -0.0708456 -0.0702268 -0.0696076 -0.0689914 -0.0683739 -0.0677576 -0.0671416 -0.0665271 -0.0659135 -0.0653009 -0.064691 -0.0640798 -0.0634683 -0.0628594 -0.0622533 -0.0616485 -0.0610439 -0.0604405 -0.0598381 -0.0592404 -0.0586453 -0.058049 -0.0574525 -0.0568583 -0.0562706 -0.055684 -0.0550976 -0.0545122 -0.0539278 -0.0533514 -0.0527772 -0.0522021 -0.0516268 -0.0510535 -0.0504896 -0.0499269 -0.0493642 -0.0488024 -0.0482415 -0.0476912 -0.0471428 -0.0465937 -0.0460445 -0.045497 -0.0449612 -0.0444264 -0.0438918 -0.0433577 -0.0428245 -0.042304 -0.041785 -0.0412656 -0.0407461 -0.040228 -0.0397234 -0.0392197 -0.0387161 -0.0382129 -0.0377105 -0.0372223 -0.0367353 -0.0362481 -0.0357608 -0.0352747 -0.0348031 -0.0343325 -0.033862 -0.0333917 -0.0329222 -0.0324677 -0.0320142 -0.0315607 -0.0311071 -0.0306545 -0.0302171 -0.0297807 -0.0293443 -0.0289079 -0.0284724 -0.0280522 -0.0276329 -0.0272137 -0.0267945 -0.0263761 -0.0259731 -0.025571 -0.025169 -0.0247668 -0.0243655 -0.0239795 -0.0235944 -0.0232094 -0.0228245 -0.0224405 -0.0220715 -0.0217039 -0.0213362 -0.0209684 -0.0206017 -0.0202498 -0.0198991 -0.0195486 -0.0191981 -0.0188488 -0.0185134 -0.0181794 -0.0178455 -0.0175116 -0.0171789 -0.0168603 -0.0165425 -0.0162248 -0.015907 -0.0155903 -0.0152879 -0.0149859 -0.0146838 -0.0143817 -0.0140799 -0.0137934 -0.0135065 -0.0132198 -0.0129331 -0.0126462 -0.0123749 -0.0121032 -0.0118315 -0.0115595 -0.0112872 -0.0110302 -0.0107728 -0.0105157 -0.0102587 -0.0100012 -0.00975846 -0.00951575 -0.00927298 -0.00902987 -0.00878695 -0.00855797 -0.00832862 -0.00809967 -0.00787081 -0.00764146 -0.00742578 -0.00721025 -0.00699462 -0.00677849 -0.00656262 -0.00635953 -0.00615614 -0.00595327 -0.00575052 -0.00554748 -0.00535649 -0.00516612 -0.00497563 -0.0047846 -0.00459412 -0.00441497 -0.00423609 -0.00405761 -0.00387922 -0.00370119 -0.00353319 -0.00336624 -0.00319926 -0.00303211 -0.00286577 -0.00270915 -0.00255304 -0.00239703 -0.00224105 -0.00208572 -0.00194002 -0.00179443 -0.0016488 -0.00150293 -0.00135736 -0.00122195 -0.00108572 -0.000949868 -0.000814106 -0.000677583 -0.000551615 -0.000425212 -0.000298708 -0.000171752 -4.4509e-05 7.27649e-05 0.000190734 0.000308264 0.000425696 0.000543865 0.000652686 0.000761541 0.000870483 0.000979818 0.00108917 0.00118989 0.00129101 0.00139179 0.00149248 0.00159356 0.00168656 0.00177952 0.00187256 0.00196593 0.00205924 0.0021449 0.00223094 0.00231666 0.00240231 0.00248828 0.00256702 0.00264573 0.00272452 0.00280363 0.00288267 0.00295484 0.0030274 0.00309963 0.0031718 0.00324428 0.00331034 0.00337636 0.00344244 0.00350883 0.00357515 0.0036354 0.00369598 0.00375628 0.00381652 0.00387703 0.00393183 0.00398667 0.00404155 0.00409668 0.00415182 0.00420143 0.00425144 0.0043012 0.00435091 0.00440093 0.00444572 0.0044906 0.00453553 0.00458071 0.00462596 0.00466618 0.00470683 0.00474724 0.0047876 0.00482832 0.00486432 0.00490045 0.00493664 0.00497306 0.00500959 0.0050416 0.00507406 0.0051063 0.00513849 0.00517107 0.00519939 0.0052279 0.00525646 0.00528522 0.00531416 0.00533901 0.00536433 0.00538945 0.00541453 0.00544001 0.00546168 0.00548356 0.00550549 0.00552761 0.00554993 0.0055686 0.00558775 0.00560671 0.00562563 0.00564497 0.0056609 0.00567708 0.0056933 0.0057097 0.00572633 0.00573968 0.00575354 0.00576722 0.00578087 0.00579495 0.00580598 0.00581729 0.00582863 0.00584014 0.00585192 0.00586075 0.00587009 0.00587929 0.00588844 0.00589805 0.00590492 0.0059121 0.00591932 0.00592668 0.00593434 0.00593936 0.0059449 0.00595031 0.00595568 0.00596153 0.00596491 0.00596864 0.0059724 0.00597629 0.00598052 0.00598236 0.00598474 0.00598701 0.00598924 0.00599197 0.00599246 0.00599333 0.00599423 0.00599525 0.00599663 0.00599585 0.00599563 0.00599529 0.00599493 0.00599509 0.0059932 0.00599174 0.00599031 0.00598898 0.00598807 0.0059852 0.00598289 0.00598048 0.00597804 0.00597612 0.00597239 0.00596908 0.00596579 0.0059626 0.00595982 0.0059553 0.00595134 0.00594728 0.00594321 0.00593965 0.00593448 0.00592975 0.00592503 0.00592041 0.00591621 0.00591046 0.00590527 0.0059 0.00589471 0.00588995 0.00588374 0.00587799 0.00587225 0.00586659 0.00586138 0.00585477 0.00584873 0.00584261 0.00583648 0.00583089 0.00582399 0.00581756 0.00581116 0.00580481 0.00579895 0.00579181 0.00578525 0.00577863 0.00577199 0.00576591 0.00575864 0.00575188 0.00574512 0.00573842 0.00573221 0.00572487 0.0057181 0.00571128 0.00570445 0.00569818 0.00569085 0.00568404 0.00567723 0.00567047 0.00566422 0.00565694 0.00565025 0.00564352 0.00563678 0.00563061 0.00562349 0.00561689 0.0056103 0.00560375 0.00559774 0.00559079 0.00558444 0.00557805 0.00557166 0.00556585 0.00555918 0.00555306 0.00554694 0.00554084 0.00553532 0.00552894 0.00552316 0.00551736 0.00551156 0.00550635 0.00550035 0.00549492 0.0054895 0.00548408 0.00547926 0.00547364 0.00546863 0.00546362 0.00545862 0.00545421 0.00544904 0.00544449 0.00543994 0.00543535 0.00543142 0.00542666 0.00542249 0.00541841 0.00541434 0.00541088 0.00540651 0.00540292 0.00539928 0.00539549 0.00539251 0.00538834 0.00538475 0.00538152 0.00537837 0.0053758 0.00537147 0.00536866 0.00536565 0.00536187 0.00535959 0.00535426 0.00534901 0.00534601 0.00534355 0.00534111 0.00533206 0.00533033 0.0053274 0.00531946 0.00531841 0.00530409 0.00527952 0.005275 0.00527522 0.00526448 0.00522158 0.00523315 0.00524351 0.00524878 0.00531689 0.00541034 0.00547389 0.00553746 0.00557543 0.00552912 0.00550989 0.00550285 0.0054958 0.0054883 0.00549229 0.00550982 0.00552798 0.00554614 0.00555783 0.00556908 0.00557014 0.00557119 0.00557224 0.00557317 0.00557386 0.00559869 0.00562763 0.00565666 0.00568569 0.00565906 0.00569721 0.00575984 0.00582285 0.00588586 0.00596585 0.00618011 0.00626912 0.00635157 0.00642768 0.00632075 0.0063566 0.00633722 0.00632077 0.0063113 0.00625593 0.00620938 0.00598781 0.00576625 0.00553211 0.00503852 0.00469889 0.00420501 0.00371113 0.00321457 0.00259578 0.00241415 0.00213685 0.00185955 0.00158225 0.00124246 0.00122336 0.00111834 0.00101332 0.000908303 0.000751139 0.000715146 0.00060368 0.000492214 0.000380748 0.000206752