# vtk DataFile Version 2.0
track0
ASCII
DATASET POLYDATA
POINTS 15780 float
-1.001 -0.05 0.0011
-1.0008 -0.05 0.0011
-1.0006 -0.05 0.0011
-1.0004 -0.05 0.0011
-1.0002 -0.05 0.0011
-1 -0.05 0.0011
-0.9875 -0.05 0.0011
-0.975 -0.05 0.0011
-0.9625 -0.05 0.0011
-0.95 -0.05 0.0011
-0.9375 -0.05 0.00109999
-0.925 -0.05 0.00109999
-0.9125 -0.05 0.00109999
-0.9 -0.05 0.00109999
-0.8875 -0.05 0.00109999
-0.875 -0.05 0.00109999
-0.8625 -0.05 0.00109999
-0.85 -0.05 0.00109999
-0.8375 -0.05 0.00109998
-0.825 -0.0500001 0.00109998
-0.8125 -0.0500001 0.00109998
-0.8 -0.0500001 0.00109998
-0.7875 -0.0500001 0.00109998
-0.775 -0.0500001 0.00109998
-0.7625 -0.0500001 0.00109998
-0.75 -0.0500001 0.00109998
-0.7375 -0.0500001 0.00109997
-0.725 -0.0500001 0.00109997
-0.7125 -0.0500001 0.00109997
-0.7 -0.0500001 0.00109997
-0.6875 -0.0500001 0.00109997
-0.675 -0.0500001 0.00109997
-0.6625 -0.0500001 0.00109997
-0.65 -0.0500001 0.00109996
-0.6375 -0.0500001 0.00109996
-0.625 -0.0500001 0.00109996
-0.6125 -0.0500001 0.00109996
-0.6 -0.0500001 0.00109996
-0.5875 -0.0500001 0.00109996
-0.575 -0.0500001 0.00109996
-0.5625 -0.0500001 0.00109996
-0.55 -0.0500001 0.00109995
-0.5375 -0.0500001 0.00109995
-0.525 -0.0500001 0.00109995
-0.5125 -0.0500001 0.00109995
-0.5 -0.0500001 0.00109995
-0.4875 -0.0500001 0.00109995
-0.475 -0.0500001 0.00109995
-0.4625 -0.0500001 0.00109994
-0.45 -0.0500002 0.00109994
-0.4375 -0.0500002 0.00109994
-0.425 -0.0500002 0.00109994
-0.4125 -0.0500002 0.00109994
-0.4 -0.0500002 0.00109994
-0.3875 -0.0500002 0.00109994
-0.375 -0.0500002 0.00109994
-0.3625 -0.0500002 0.00109993
-0.35 -0.0500002 0.00109993
-0.3375 -0.0500002 0.00109993
-0.325 -0.0500002 0.00109993
-0.3125 -0.0500002 0.00109993
-0.3 -0.0500002 0.00109993
-0.2875 -0.0500002 0.00109993
-0.275 -0.0500002 0.00109993
-0.2625 -0.0500002 0.00109992
-0.25 -0.0500002 0.00109992
-0.2375 -0.0500002 0.00109992
-0.225 -0.0500002 0.00109992
-0.2125 -0.0500002 0.00109992
-0.2 -0.0500002 0.00109992
-0.1875 -0.0500002 0.00109992
-0.175 -0.0500002 0.00109992
-0.1625 -0.0500002 0.00109991
-0.15 -0.0500002 0.00109991
-0.1375 -0.0500002 0.00109991
-0.125 -0.0500002 0.00109991
-0.1125 -0.0500002 0.00109991
-0.1 -0.0500002 0.00109991
-0.0875 -0.0500002 0.00109991
-0.075 -0.0500002 0.00109991
-0.0625 -0.0500002 0.00109991
-0.05 -0.0500003 0.00109991
-0.0375 -0.0500003 0.0010999
-0.025 -0.0500003 0.0010999
-0.0125 -0.0500003 0.0010999
2.10607e-13 -0.0500003 0.0010999
0.0125 -0.0500003 0.0010999
0.025 -0.0500003 0.0010999
0.0375 -0.0500003 0.0010999
0.05 -0.0500003 0.0010999
0.0625 -0.0500003 0.0010999
0.075 -0.0500003 0.0010999
0.0875 -0.0500003 0.0010999
0.1 -0.0500003 0.00109989
0.1125 -0.0500003 0.00109989
0.125 -0.0500003 0.00109989
0.1375 -0.0500003 0.00109989
0.15 -0.0500003 0.00109989
0.1625 -0.0500003 0.00109989
0.175 -0.0500003 0.00109989
0.1875 -0.0500003 0.00109989
0.2 -0.0500003 0.00109989
0.2125 -0.0500003 0.00109989
0.225 -0.0500003 0.00109989
0.2375 -0.0500003 0.00109989
0.25 -0.0500003 0.00109989
0.2625 -0.0500003 0.00109988
0.275 -0.0500003 0.00109988
0.2875 -0.0500003 0.00109988
0.3 -0.0500003 0.00109988
0.3125 -0.0500003 0.00109988
0.325 -0.0500003 0.00109988
0.3375 -0.0500003 0.00109988
0.35 -0.0500003 0.00109988
0.3625 -0.0500003 0.00109988
0.375 -0.0500003 0.00109988
0.3875 -0.0500003 0.00109988
0.4 -0.0500004 0.00109988
0.4125 -0.0500004 0.00109988
0.425 -0.0500004 0.00109988
0.4375 -0.0500004 0.00109988
0.45 -0.0500004 0.00109988
0.4625 -0.0500004 0.00109988
0.475 -0.0500004 0.00109988
0.4875 -0.0500004 0.00109988
0.5 -0.0500004 0.00109988
0.5125 -0.0500004 0.00109988
0.525 -0.0500004 0.00109988
0.5375 -0.0500004 0.00109988
0.55 -0.0500004 0.00109988
0.5625 -0.0500004 0.00109988
0.575 -0.0500004 0.00109987
0.5875 -0.0500004 0.00109987
0.6 -0.0500004 0.00109987
0.6125 -0.0500004 0.00109987
0.625 -0.0500004 0.00109987
0.6375 -0.0500004 0.00109987
0.65 -0.0500004 0.00109987
0.6625 -0.0500004 0.00109987
0.675 -0.0500004 0.00109987
0.6875 -0.0500004 0.00109987
0.7 -0.0500004 0.00109987
0.7125 -0.0500004 0.00109987
0.725 -0.0500004 0.00109987
0.7375 -0.0500004 0.00109987
0.75 -0.0500004 0.00109987
0.7625 -0.0500004 0.00109987
0.775 -0.0500004 0.00109987
0.7875 -0.0500004 0.00109987
0.8 -0.0500004 0.00109987
0.8125 -0.0500004 0.00109987
0.825 -0.0500004 0.00109987
0.8375 -0.0500004 0.00109987
0.85 -0.0500004 0.00109987
0.8625 -0.0500004 0.00109987
0.875 -0.0500004 0.00109987
0.8875 -0.0500004 0.00109987
0.9 -0.0500004 0.00109987
0.9125 -0.0500005 0.00109988
0.925 -0.0500005 0.00109988
0.9375 -0.0500005 0.00109988
0.95 -0.0500005 0.00109988
0.9625 -0.0500005 0.00109988
0.975 -0.0500005 0.00109988
0.9875 -0.0500005 0.00109988
1 -0.0500005 0.00109988
1.0125 -0.0500005 0.00109988
1.025 -0.0500005 0.00109988
1.0375 -0.0500005 0.00109988
1.05 -0.0500005 0.00109988
1.0625 -0.0500005 0.00109988
1.075 -0.0500005 0.00109988
1.0875 -0.0500005 0.00109988
1.1 -0.0500005 0.00109988
1.1125 -0.0500005 0.00109988
1.125 -0.0500005 0.00109988
1.1375 -0.0500005 0.00109988
1.15 -0.0500005 0.00109988
1.1625 -0.0500005 0.00109988
1.175 -0.0500005 0.00109988
1.1875 -0.0500005 0.00109988
1.2 -0.0500005 0.00109988
1.2125 -0.0500005 0.00109988
1.225 -0.0500005 0.00109988
1.2375 -0.0500005 0.00109989
1.25 -0.0500005 0.00109989
1.2625 -0.0500005 0.00109989
1.275 -0.0500005 0.00109989
1.2875 -0.0500005 0.00109989
1.3 -0.0500005 0.00109989
1.3125 -0.0500005 0.00109989
1.325 -0.0500005 0.00109989
1.3375 -0.0500005 0.00109989
1.35 -0.0500005 0.00109989
1.3625 -0.0500005 0.00109989
1.375 -0.0500005 0.00109989
1.3875 -0.0500005 0.00109989
1.4 -0.0500005 0.00109989
1.4125 -0.0500005 0.00109989
1.425 -0.0500005 0.00109989
1.4375 -0.0500005 0.0010999
1.45 -0.0500005 0.0010999
1.4625 -0.0500005 0.0010999
1.475 -0.0500005 0.0010999
1.4875 -0.0500005 0.0010999
1.5 -0.0500006 0.0010999
1.5125 -0.0500006 0.0010999
1.525 -0.0500006 0.0010999
1.5375 -0.0500006 0.0010999
1.55 -0.0500006 0.0010999
1.5625 -0.0500006 0.0010999
1.575 -0.0500006 0.0010999
1.5875 -0.0500006 0.0010999
1.6 -0.0500006 0.0010999
1.6125 -0.0500006 0.00109991
1.625 -0.0500006 0.00109991
1.6375 -0.0500006 0.00109991
1.65 -0.0500006 0.00109991
1.6625 -0.0500006 0.00109991
1.675 -0.0500006 0.00109991
1.6875 -0.0500006 0.00109991
1.7 -0.0500006 0.00109991
1.7125 -0.0500006 0.00109991
1.725 -0.0500006 0.00109991
1.7375 -0.0500006 0.00109991
1.75 -0.0500006 0.00109991
1.7625 -0.0500006 0.00109992
1.775 -0.0500006 0.00109992
1.7875 -0.0500006 0.00109992
1.8 -0.0500006 0.00109992
1.8125 -0.0500006 0.00109992
1.825 -0.0500006 0.00109992
1.8375 -0.0500006 0.00109992
1.85 -0.0500006 0.00109992
1.8625 -0.0500006 0.00109992
1.875 -0.0500006 0.00109992
1.8875 -0.0500006 0.00109992
1.9 -0.0500006 0.00109992
1.9125 -0.0500006 0.00109993
1.925 -0.0500006 0.00109993
1.9375 -0.0500006 0.00109993
1.95 -0.0500006 0.00109993
1.9625 -0.0500006 0.00109993
1.975 -0.0500006 0.00109993
1.9875 -0.0500006 0.00109993
2 -0.0500006 0.00109993
2.0125 -0.0500006 0.00109993
2.025 -0.0500006 0.00109993
2.0375 -0.0500006 0.00109993
2.05 -0.0500006 0.00109993
2.0625 -0.0500006 0.00109994
2.075 -0.0500006 0.00109994
2.0875 -0.0500006 0.00109994
2.1 -0.0500006 0.00109994
2.1125 -0.0500006 0.00109994
2.125 -0.0500006 0.00109994
2.1375 -0.0500006 0.00109994
2.15 -0.0500006 0.00109994
2.1625 -0.0500006 0.00109994
2.175 -0.0500007 0.00109994
2.1875 -0.0500007 0.00109994
2.2 -0.0500007 0.00109994
2.2125 -0.0500007 0.00109994
2.225 -0.0500007 0.00109995
2.2375 -0.0500007 0.00109995
2.25 -0.0500007 0.00109995
2.2625 -0.0500007 0.00109995
2.275 -0.0500007 0.00109995
2.2875 -0.0500007 0.00109995
2.3 -0.0500007 0.00109995
2.3125 -0.0500007 0.00109995
2.325 -0.0500007 0.00109995
2.3375 -0.0500007 0.00109995
2.35 -0.0500007 0.00109995
2.3625 -0.0500007 0.00109995
2.375 -0.0500007 0.00109995
2.3875 -0.0500007 0.00109996
2.4 -0.0500007 0.00109996
2.4125 -0.0500007 0.00109996
2.425 -0.0500007 0.00109996
2.4375 -0.0500007 0.00109996
2.45 -0.0500007 0.00109996
2.4625 -0.0500007 0.00109996
2.475 -0.0500007 0.00109996
2.4875 -0.0500007 0.00109996
2.5 -0.0500007 0.00109996
2.5125 -0.0500007 0.00109996
2.525 -0.0500007 0.00109996
2.5375 -0.0500007 0.00109996
2.55 -0.0500007 0.00109996
2.5625 -0.0500007 0.00109997
2.575 -0.0500007 0.00109997
2.5875 -0.0500007 0.00109997
2.6 -0.0500007 0.00109997
2.6125 -0.0500007 0.00109997
2.625 -0.0500007 0.00109997
2.6375 -0.0500007 0.00109997
2.65 -0.0500007 0.00109997
2.6625 -0.0500007 0.00109997
2.675 -0.0500007 0.00109997
2.6875 -0.0500007 0.00109997
2.7 -0.0500007 0.00109997
2.7125 -0.0500007 0.00109997
2.725 -0.0500007 0.00109997
2.7375 -0.0500007 0.00109997
2.75 -0.0500007 0.00109997
2.7625 -0.0500007 0.00109998
2.775 -0.0500007 0.00109998
2.7875 -0.0500007 0.00109998
2.8 -0.0500007 0.00109998
2.8125 -0.0500007 0.00109998
2.825 -0.0500007 0.00109998
2.8375 -0.0500007 0.00109998
2.85 -0.0500007 0.00109998
2.8625 -0.0500008 0.00109998
2.875 -0.0500008 0.00109998
2.8875 -0.0500008 0.00109998
2.9 -0.0500008 0.00109998
2.9125 -0.0500008 0.00109998
2.925 -0.0500008 0.00109998
2.9375 -0.0500008 0.00109998
2.95 -0.0500008 0.00109998
2.9625 -0.0500008 0.00109998
2.975 -0.0500008 0.00109998
2.9875 -0.0500008 0.00109998
3 -0.0500008 0.00109998
3.0125 -0.0500008 0.00109999
3.025 -0.0500008 0.00109999
3.0375 -0.0500008 0.00109999
3.05 -0.0500008 0.00109999
3.0625 -0.0500008 0.00109999
3.075 -0.0500008 0.00109999
3.0875 -0.0500008 0.00109999
3.1 -0.0500008 0.00109999
3.1125 -0.0500008 0.00109999
3.125 -0.0500008 0.00109999
3.1375 -0.0500008 0.00109999
3.15 -0.0500008 0.00109999
3.1625 -0.0500008 0.00109999
3.175 -0.0500008 0.00109999
3.1875 -0.0500008 0.00109999
3.2 -0.0500008 0.00109999
3.2125 -0.0500008 0.00109999
3.225 -0.0500008 0.00109999
3.2375 -0.0500008 0.00109999
3.25 -0.0500008 0.00109999
3.2625 -0.0500008 0.00109999
3.275 -0.0500008 0.00109999
3.2875 -0.0500008 0.00109999
3.3 -0.0500008 0.00109999
3.3125 -0.0500008 0.00109999
3.325 -0.0500008 0.00109999
3.3375 -0.0500008 0.00109999
3.35 -0.0500008 0.0011
3.3625 -0.0500008 0.0011
[...]
POINT_DATA 15780
 FIELD attributes 2
p 1 15780 float
-0.0310983 -0.0311144 -0.0311304 -0.0311464 -0.0311625 -0.0311785 -0.03211 -0.0330337 -0.0339575 -0.0348812 -0.0359017 -0.0369655 -0.0380319 -0.0390983 -0.0401646 -0.0411843 -0.0421678 -0.0431326 -0.0440974 -0.0450622 -0.0459753 -0.0468732 -0.0477757 -0.0486783 -0.0495808 -0.0504776 -0.0513782 -0.0522797 -0.0531812 -0.0540827 -0.0549835 -0.055891 -0.056799 -0.0577069 -0.0586149 -0.0595224 -0.060422 -0.0613195 -0.062217 -0.0631145 -0.0640091 -0.0648881 -0.0657653 -0.0666424 -0.0675196 -0.0683946 -0.069252 -0.0701073 -0.0709626 -0.071818 -0.0726713 -0.073506 -0.074338 -0.0751701 -0.0760021 -0.0768318 -0.0776401 -0.0784453 -0.0792504 -0.0800556 -0.0808579 -0.081636 -0.0824103 -0.0831846 -0.0839588 -0.0847295 -0.0854737 -0.0862136 -0.0869536 -0.0876935 -0.0884296 -0.0891369 -0.0898395 -0.090542 -0.0912446 -0.0919426 -0.0926099 -0.093272 -0.0939342 -0.0945964 -0.0952535 -0.095878 -0.0964968 -0.0971157 -0.0977345 -0.0983478 -0.0989268 -0.0995 -0.100073 -0.100646 -0.101214 -0.101746 -0.102272 -0.102799 -0.103325 -0.103845 -0.10433 -0.104807 -0.105285 -0.105762 -0.106234 -0.106668 -0.107095 -0.107522 -0.107948 -0.108368 -0.108748 -0.109121 -0.109494 -0.109867 -0.110232 -0.110557 -0.110874 -0.111191 -0.111508 -0.111817 -0.112085 -0.112345 -0.112605 -0.112866 -0.113118 -0.113328 -0.113531 -0.113734 -0.113936 -0.114131 -0.114283 -0.114427 -0.114572 -0.114716 -0.114851 -0.114944 -0.11503 -0.115115 -0.115201 -0.115278 -0.115314 -0.115343 -0.115372 -0.115401 -0.115422 -0.115404 -0.115379 -0.115353 -0.115328 -0.115295 -0.115224 -0.115147 -0.115069 -0.114991 -0.114906 -0.114784 -0.114654 -0.114525 -0.114395 -0.114258 -0.114084 -0.113903 -0.113722 -0.113541 -0.113352 -0.113129 -0.112898 -0.112668 -0.112437 -0.1122 -0.111929 -0.111653 -0.111376 -0.111099 -0.110815 -0.110501 -0.11018 -0.10986 -0.109539 -0.109212 -0.108855 -0.108493 -0.10813 -0.107768 -0.107399 -0.107002 -0.1066 -0.106198 -0.105797 -0.105389 -0.104956 -0.104517 -0.104079 -0.103641 -0.103197 -0.10273 -0.10226 -0.10179 -0.101319 -0.100844 -0.10035 -0.0998519 -0.0993539 -0.0988558 -0.0983536 -0.0978347 -0.0973123 -0.0967899 -0.0962674 -0.0957411 -0.0952002 -0.0946558 -0.0941114 -0.0935671 -0.093019 -0.092458 -0.0918943 -0.0913305 -0.0907667 -0.0901998 -0.0896221 -0.0890419 -0.0884617 -0.0878815 -0.0872984 -0.0867069 -0.0861135 -0.0855201 -0.0849267 -0.0843311 -0.0837292 -0.0831257 -0.0825222 -0.0819186 -0.0813131 -0.0807034 -0.0800926 -0.0794818 -0.0788709 -0.0782587 -0.0776442 -0.0770288 -0.0764134 -0.075798 -0.0751813 -0.0745643 -0.0739469 -0.0733295 -0.0727121 -0.072094 -0.0714772 -0.0708602 -0.0702432 -0.0696262 -0.0690087 -0.0683941 -0.0677798 -0.0671654 -0.0665511 -0.0659367 -0.0653266 -0.0647169 -0.0641072 -0.0634976 -0.0628879 -0.062284 -0.0616807 -0.0610775 -0.0604743 -0.0598716 -0.0592757 -0.0586807 -0.0580857 -0.0574907 -0.0568963 -0.0563098 -0.0557245 -0.0551392 -0.054554 -0.0539697 -0.0533943 -0.0528202 -0.052246 -0.0516719 -0.0510989 -0.0505355 -0.0499737 -0.0494119 -0.0488502 -0.0482898 -0.0477398 -0.0471914 -0.0466431 -0.0460947 -0.0455478 -0.0450119 -0.0444778 -0.0439438 -0.0434098 -0.0428775 -0.0423566 -0.0418377 -0.0413187 -0.0407998 -0.0402826 -0.0397773 -0.0392741 -0.0387708 -0.0382676 -0.0377664 -0.0372773 -0.0367903 -0.0363034 -0.0358164 -0.0353315 -0.0348588 -0.0343885 -0.0339181 -0.0334477 -0.0329796 -0.0325238 -0.0320704 -0.0316169 -0.0311634 -0.0307121 -0.0302733 -0.0298369 -0.0294005 -0.0289641 -0.02853 -0.0281083 -0.0276889 -0.0272696 -0.0268503 -0.0264333 -0.0260287 -0.0256264 -0.0252242 -0.0248219 -0.0244221 -0.0240346 -0.0236495 -0.0232643 -0.0228792 -0.0224965 -0.0221261 -0.0217582 -0.0213903 -0.0210225 -0.020657 -0.0203038 -0.0199531 -0.0196023 -0.0192516 -0.0189032 -0.0185665 -0.0182325 -0.0178985 -0.0175644 -0.0172329 -0.0169125 -0.0165946 -0.0162767 -0.0159588 -0.0156434 -0.0153388 -0.0150365 -0.0147342 -0.0144318 -0.014132 -0.0138427 -0.0135556 -0.0132685 -0.0129815 -0.012697 -0.0124227 -0.0121506 -0.0118785 -0.0116064 -0.0113366 -0.0110769 -0.0108194 -0.010562 -0.0103045 -0.0100493 -0.009804 -0.00956084 -0.00931768 -0.00907452 -0.00883356 -0.00860208 -0.00837265 -0.00814321 -0.00791377 -0.00768642 -0.00746806 -0.00725181 -0.00703556 -0.00681931 -0.00660514 -0.00639961 -0.00619611 -0.00599261 -0.00578911 -0.00558761 -0.00539439 -0.00520327 -0.00501216 -0.00482104 -0.00463203 -0.00445098 -0.00427205 -0.00409311 -0.00391417 -0.00373728 -0.00356805 -0.00340087 -0.00323368 -0.0030665 -0.00290136 -0.00274331 -0.00258713 -0.00243096 -0.00227478 -0.00212063 -0.00197312 -0.00182714 -0.00168115 -0.00153517 -0.00139096 -0.001253 -0.00111664 -0.000980281 -0.00084392 -0.000709333 -0.000580656 -0.000453589 -0.000326521 -0.000199453 -7.40305e-05 4.56401e-05 0.000163695 0.00028175 0.000399806 0.000516243 0.000627231 0.000736635 0.000846038 0.000955442 0.00106322 0.00116596 0.00126715 0.00136834 0.00146954 0.00156914 0.00166403 0.00175747 0.00185091 0.00194434 0.00203627 0.0021238 0.00220991 0.00229602 0.00238213 0.00246676 0.00254726 0.00262644 0.00270562 0.00278479 0.00286257 0.00293651 0.00300914 0.00308176 0.00315439 0.00322562 0.00329332 0.00335978 0.00342623 0.00349268 0.00355784 0.00361969 0.00368033 0.00374097 0.00380161 0.00386097 0.00391729 0.00397247 0.00402765 0.00408284 0.00413681 0.00418801 0.00423806 0.00428812 0.00433818 0.00438704 0.00443335 0.00447858 0.00452382 0.00456905 0.00461316 0.00465493 0.00469564 0.00473634 0.00477705 0.00481665 0.0048541 0.00489057 0.00492704 0.00496351 0.00499893 0.00503242 0.00506494 0.00509745 0.00512996 0.00516142 0.00519116 0.00521998 0.00524879 0.00527761 0.00530545 0.00533173 0.0053571 0.00538246 0.00540783 0.00543224 0.00545524 0.0054774 0.00549956 0.00552172 0.00554298 0.00556302 0.0055822 0.00560139 0.00562058 0.00563887 0.00565609 0.00567253 0.00568896 0.0057054 0.00572099 0.00573567 0.00574956 0.00576345 0.00577734 0.00579041 0.00580267 0.00581421 0.00582575 0.0058373 0.00584807 0.00585817 0.00586755 0.00587693 0.00588631 0.00589491 0.00590298 0.00591037 0.00591776 0.00592516 0.00593183 0.00593808 0.00594365 0.00594923 0.0059548 0.00595966 0.0059642 0.00596812 0.00597204 0.00597596 0.0059792 0.00598225 0.00598466 0.00598707 0.00598948 0.00599122 0.00599286 0.0059939 0.00599494 0.00599599 0.0059964 0.0059968 0.0059966 0.0059964 0.00599621 0.00599538 0.00599462 0.00599331 0.00599201 0.0059907 0.00598881 0.00598708 0.00598479 0.0059825 0.00598021 0.00597733 0.00597468 0.00597151 0.00596834 0.00596517 0.00596146 0.00595803 0.00595409 0.00595014 0.0059462 0.00594171 0.00593759 0.00593298 0.00592837 0.00592376 0.00591863 0.00591395 0.00590877 0.0059036 0.00589842 0.00589273 0.00588755 0.0058819 0.00587625 0.00587061 0.00586448 0.00585891 0.00585288 0.00584684 0.00584081 0.0058343 0.00582841 0.00582208 0.00581575 0.00580942 0.00580263 0.00579652 0.00578997 0.00578342 0.00577687 0.00576987 0.0057636 0.00575691 0.00575022 0.00574353 0.0057364 0.00573006 0.00572331 0.00571655 0.00570979 0.00570261 0.00569626 0.00568951 0.00568276 0.005676 0.00566884 0.00566256 0.00565588 0.0056492 0.00564252 0.00563543 0.00562928 0.00562273 0.00561619 0.00560965 0.0056027 0.00559675 0.0055904 0.00558406 0.00557772 0.00557098 0.00556528 0.0055592 0.00555311 0.00554703 0.00554055 0.00553516 0.00552939 0.00552362 0.00551784 0.0055117 0.00550667 0.00550126 0.00549585 0.00549043 0.00548465 0.00548001 0.005475 0.00546999 0.00546498 0.00545961 0.00545541 0.00545082 0.00544624 0.00544165 0.00543669 0.00543291 0.00542875 0.00542458 0.00542041 0.00541588 0.00541249 0.00540868 0.00540487 0.00540106 0.00539686 0.00539366 0.00539002 0.00538638 0.00538274 0.00537868 0.00537527 0.00537136 0.00536744 0.00536353 0.00535913 0.00535423 0.00534851 0.00534278 0.00533706 0.00533055 0.00532178 0.00531257 0.00530337 0.00529416 0.00528447 0.00525835 0.0052267 0.00519505 0.0051634 0.00512687 0.00511539 0.00511805 0.0051207 0.00512336 0.00514898 0.00523259 0.00530863 0.005388 0.00545097 0.00549659 0.00548957 0.00548574 0.00548191 0.0054781 0.00547657 0.00550345 0.00553114 0.00555882 0.0055785 0.00559946 0.00561339 0.00563224 0.00565112 0.00567 0.00568433 0.00574721 0.00581223 0.00587724 0.00594225 0.00599875 0.00609019 0.00616629 0.0062424 0.0063185 0.00632364 0.00630901 0.00628962 0.00627024 0.00625086 0.00624097 0.00604011 0.00581854 0.00559697 0.0053754 0.00504802 0.00456802 0.00407413 0.00358023 0.00308634 0.00262223 0.00235246 0.00207514 0.00179782 0.0015205 0.00127314 0.00117453 0.00106948 0.000964437 0.000859393 0.000773727 0.000667793 0.000556302 0.000444811 0.000333318 0.000255311
-0.0319477 -0.0319668 -0.0319859 -0.032005 -0.0320241 -0.0320432 -0.0327441 -0.0336217 -0.0344044 -0.0351669 -0.0362251 -0.0372618 -0.0382522 -0.0392547 -0.0403141 -0.0412981 -0.0422593 -0.0432253 -0.0441659 -0.0451011 -0.0460071 -0.0469051 -0.0478112 -0.0487171 -0.0496223 -0.0505273 -0.051419 -0.0523228 -0.0532315 -0.0541412 -0.0550616 -0.0559667 -0.056879 -0.0577907 -0.0587002 -0.0596153 -0.0605166 -0.061415 -0.0623146 -0.0632144 -0.0641106 -0.0649917 -0.0658717 -0.0667512 -0.0676289 -0.0685047 -0.0693629 -0.0702186 -0.0710768 -0.0719356 -0.0727921 -0.0736261 -0.0744615 -0.0752964 -0.0761287 -0.0769624 -0.0777697 -0.078575 -0.0793828 -0.080191 -0.0809978 -0.0817734 -0.0825506 -0.0833273 -0.0841017 -0.0848776 -0.0856184 -0.0863585 -0.0871007 -0.0878435 -0.0885858 -0.0892882 -0.0899934 -0.0906982 -0.0914008 -0.0921062 -0.0927675 -0.0934297 -0.0940939 -0.0947585 -0.0954243 -0.0960412 -0.0966623 -0.0972829 -0.0979017 -0.0985245 -0.0990935 -0.0996665 -0.100241 -0.100816 -0.101396 -0.101915 -0.102442 -0.10297 -0.103496 -0.10403 -0.104503 -0.10498 -0.105459 -0.105937 -0.106422 -0.106844 -0.107271 -0.107698 -0.108125 -0.108556 -0.108926 -0.109299 -0.109671 -0.110044 -0.110419 -0.110734 -0.11105 -0.111367 -0.111684 -0.112002 -0.112261 -0.112522 -0.112781 -0.11304 -0.1133 -0.113503 -0.113705 -0.113907 -0.114109 -0.114311 -0.114456 -0.1146 -0.114743 -0.114887 -0.11503 -0.115113 -0.115198 -0.115284 -0.115369 -0.115456 -0.11548 -0.115509 -0.115538 -0.115567 -0.1156 -0.115568 -0.115542 -0.115516 -0.11549 -0.11547 -0.115386 -0.115308 -0.115229 -0.115149 -0.115076 -0.11494 -0.114807 -0.114674 -0.114544 -0.114417 -0.11423 -0.114049 -0.113864 -0.11368 -0.1135 -0.113264 -0.11303 -0.112796 -0.112565 -0.112336 -0.112054 -0.111777 -0.111497 -0.111217 -0.11094 -0.110615 -0.110291 -0.109967 -0.109646 -0.109325 -0.10896 -0.108598 -0.108233 -0.107867 -0.107504 -0.1071 -0.106696 -0.106292 -0.10589 -0.105487 -0.105047 -0.104608 -0.104168 -0.103728 -0.10329 -0.102813 -0.10234 -0.101867 -0.101396 -0.100928 -0.100423 -0.0999242 -0.099423 -0.0989213 -0.0984263 -0.0978972 -0.097371 -0.0968453 -0.0963224 -0.0958021 -0.0952525 -0.0947078 -0.0941604 -0.0936125 -0.0930694 -0.0925009 -0.0919338 -0.0913672 -0.0908031 -0.09024 -0.0896554 -0.0890749 -0.088492 -0.0879087 -0.0873292 -0.0867314 -0.086135 -0.0855391 -0.0849454 -0.0843527 -0.083745 -0.0831411 -0.0825352 -0.0819287 -0.081326 -0.0807111 -0.0800976 -0.0794845 -0.0788734 -0.0782632 -0.0776441 -0.0770284 -0.0764108 -0.0757928 -0.0751782 -0.0745571 -0.0739373 -0.0733178 -0.0727002 -0.0720834 -0.0714631 -0.0708458 -0.070227 -0.0696078 -0.0689916 -0.0683741 -0.0677578 -0.0671418 -0.0665273 -0.0659137 -0.065301 -0.0646912 -0.06408 -0.0634685 -0.0628596 -0.0622535 -0.0616486 -0.061044 -0.0604407 -0.0598382 -0.0592406 -0.0586454 -0.0580492 -0.0574526 -0.0568585 -0.0562707 -0.0556841 -0.0550977 -0.0545124 -0.0539279 -0.0533515 -0.0527773 -0.0522022 -0.0516269 -0.0510537 -0.0504898 -0.049927 -0.0493644 -0.0488025 -0.0482416 -0.0476913 -0.0471429 -0.0465938 -0.0460446 -0.0454971 -0.0449613 -0.0444265 -0.0438919 -0.0433578 -0.0428246 -0.0423041 -0.0417851 -0.0412657 -0.0407462 -0.0402281 -0.0397234 -0.0392198 -0.0387162 -0.0382129 -0.0377106 -0.0372223 -0.0367354 -0.0362481 -0.0357608 -0.0352747 -0.0348031 -0.0343326 -0.033862 -0.0333917 -0.0329222 -0.0324677 -0.0320142 -0.0315607 -0.0311071 -0.0306545 -0.0302171 -0.0297807 -0.0293443 -0.0289079 -0.0284724 -0.0280522 -0.0276329 -0.0272137 -0.0267945 -0.0263761 -0.0259731 -0.025571 -0.0251689 -0.0247667 -0.0243655 -0.0239795 -0.0235944 -0.0232094 -0.0228245 -0.0224405 -0.0220715 -0.0217038 -0.0213362 -0.0209683 -0.0206017 -0.0202497 -0.0198991 -0.0195486 -0.0191981 -0.0188487 -0.0185133 -0.0181794 -0.0178455 -0.0175115 -0.0171788 -0.0168602 -0.0165425 -0.0162247 -0.015907 -0.0155903 -0.0152878 -0.0149858 -0.0146838 -0.0143816 -0.0140799 -0.0137934 -0.0135064 -0.0132197 -0.0129331 -0.0126462 -0.0123748 -0.0121032 -0.0118315 -0.0115594 -0.0112871 -0.0110301 -0.0107727 -0.0105156 -0.0102587 -0.0100012 -0.00975839 -0.00951569 -0.00927291 -0.0090298 -0.00878688 -0.0085579 -0.00832855 -0.0080996 -0.00787074 -0.00764139 -0.0074257 -0.00721018 -0.00699455 -0.00677842 -0.00656255 -0.00635946 -0.00615607 -0.0059532 -0.00575045 -0.00554741 -0.00535642 -0.00516605 -0.00497556 -0.00478453 -0.00459404 -0.00441489 -0.00423601 -0.00405753 -0.00387914 -0.00370112 -0.00353311 -0.00336617 -0.00319918 -0.00303204 -0.0028657 -0.00270908 -0.00255297 -0.00239696 -0.00224098 -0.00208564 -0.00193994 -0.00179436 -0.00164873 -0.00150286 -0.00135729 -0.00122187 -0.00108564 -0.000949796 -0.000814034 -0.000677511 -0.000551543 -0.00042514 -0.000298636 -0.00017168 -4.44365e-05 7.28375e-05 0.000190807 0.000308338 0.00042577 0.000543939 0.000652759 0.000761615 0.000870557 0.000979892 0.00108924 0.00118996 0.00129109 0.00139186 0.00149256 0.00159363 0.00168663 0.0017796 0.00187264 0.00196601 0.00205932 0.00214497 0.00223101 0.00231673 0.00240238 0.00248835 0.0025671 0.00264581 0.0027246 0.0028037 0.00288275 0.00295492 0.00302748 0.00309972 0.00317188 0.00324436 0.00331043 0.00337644 0.00344252 0.00350891 0.00357523 0.00363548 0.00369606 0.00375636 0.00381661 0.00387712 0.00393192 0.00398675 0.00404164 0.00409676 0.0041519 0.00420152 0.00425152 0.00430129 0.00435099 0.00440102 0.00444581 0.00449069 0.00453562 0.0045808 0.00462605 0.00466627 0.00470692 0.00474734 0.00478769 0.00482842 0.00486442 0.00490055 0.00493674 0.00497316 0.0050097 0.0050417 0.00507416 0.0051064 0.00513859 0.00517117 0.0051995 0.00522801 0.00525656 0.00528533 0.00531427 0.00533912 0.00536444 0.00538956 0.00541464 0.00544012 0.00546179 0.00548368 0.0055056 0.00552772 0.00555004 0.00556871 0.00558786 0.00560682 0.00562574 0.00564508 0.00566101 0.00567719 0.00569341 0.00570981 0.00572644 0.00573979 0.00575365 0.00576733 0.00578098 0.00579506 0.00580609 0.00581739 0.00582874 0.00584024 0.00585202 0.00586085 0.00587019 0.00587938 0.00588854 0.00589815 0.00590501 0.00591219 0.00591941 0.00592677 0.00593443 0.00593944 0.00594499 0.00595039 0.00595577 0.00596162 0.00596499 0.00596872 0.00597248 0.00597637 0.0059806 0.00598244 0.00598482 0.00598708 0.00598931 0.00599204 0.00599253 0.0059934 0.0059943 0.00599532 0.0059967 0.00599592 0.0059957 0.00599536 0.005995 0.00599515 0.00599327 0.00599181 0.00599038 0.00598905 0.00598814 0.00598527 0.00598296 0.00598054 0.0059781 0.00597618 0.00597245 0.00596914 0.00596585 0.00596266 0.00595988 0.00595536 0.00595139 0.00594734 0.00594326 0.0059397 0.00593453 0.0059298 0.00592509 0.00592046 0.00591626 0.00591051 0.00590532 0.00590005 0.00589476 0.00588999 0.00588378 0.00587803 0.00587229 0.00586663 0.00586142 0.00585481 0.00584876 0.00584265 0.00583652 0.00583092 0.00582402 0.0058176 0.00581119 0.00580484 0.00579897 0.00579184 0.00578527 0.00577865 0.00577202 0.00576593 0.00575866 0.00575189 0.00574513 0.00573843 0.00573223 0.00572488 0.00571811 0.00571129 0.00570446 0.00569819 0.00569086 0.00568404 0.00567723 0.00567047 0.00566422 0.00565695 0.00565026 0.00564352 0.00563678 0.00563061 0.00562349 0.00561689 0.0056103 0.00560375 0.00559774 0.00559079 0.00558444 0.00557806 0.00557167 0.00556585 0.00555919 0.00555306 0.00554695 0.00554085 0.00553533 0.00552895 0.00552317 0.00551737 0.00551157 0.00550636 0.00550037 0.00549494 0.00548952 0.0054841 0.00547929 0.00547367 0.00546866 0.00546365 0.00545865 0.00545425 0.00544908 0.00544453 0.00543998 0.0054354 0.00543147 0.00542671 0.00542255 0.00541846 0.0054144 0.00541095 0.00540658 0.00540298 0.00539936 0.00539557 0.00539259 0.00538843 0.00538484 0.00538161 0.00537846 0.0053759 0.00537158 0.00536876 0.00536577 0.00536199 0.00535972 0.00535439 0.00534914 0.00534615 0.00534369 0.00534126 0.00533222 0.00533048 0.00532757 0.00531963 0.00531859 0.00530427 0.00527971 0.0052752 0.00527542 0.00526469 0.00522179 0.00523336 0.00524374 0.00524901 0.00531712 0.00541059 0.00547415 0.00553773 0.00557571 0.00552941 0.00551019 0.00550315 0.00549611 0.00548862 0.00549261 0.00551016 0.00552833 0.00554649 0.0055582 0.00556946 0.00557051 0.00557157 0.00557262 0.00557355 0.00557424 0.00559907 0.00562803 0.00565706 0.0056861 0.00565948 0.00569763 0.00576027 0.00582329 0.00588631 0.00596629 0.00618057 0.00626958 0.00635204 0.00642815 0.00632122 0.00635708 0.0063377 0.00632124 0.00631178 0.0062564 0.00620985 0.00598828 0.00576671 0.00553256 0.00503895 0.00469933 0.00420543 0.00371154 0.00321497 0.00259615 0.00241452 0.0021372 0.00185988 0.00158256 0.00124274 0.00122362 0.00111858 0.00101354 0.000908492 0.000751296 0.000715283 0.000603793 0.000492304 0.000380814 0.000206784