# vtk DataFile Version 2.0
track0
ASCII
DATASET POLYDATA
POINTS 15780 float
-1.001 -0.05 0.0011
-1.0008 -0.05 0.0011
-1.0006 -0.05 0.0011
-1.0004 -0.05 0.0011
-1.0002 -0.05 0.0011
-1 -0.05 0.0011
-0.9875 -0.05 0.0011
-0.975 -0.05 0.0011
-0.9625 -0.05 0.0011
-0.95 -0.05 0.0011
-0.9375 -0.05 0.00109999
-0.925 -0.05 0.00109999
-0.9125 -0.05 0.00109999
-0.9 -0.05 0.00109999
-0.8875 -0.05 0.00109999
-0.875 -0.05 0.00109999
-0.8625 -0.05 0.00109999
-0.85 -0.05 0.00109999
-0.8375 -0.05 0.00109998
-0.825 -0.0500001 0.00109998
-0.8125 -0.0500001 0.00109998
-0.8 -0.0500001 0.00109998
-0.7875 -0.0500001 0.00109998
-0.775 -0.0500001 0.00109998
-0.7625 -0.0500001 0.00109998
-0.75 -0.0500001 0.00109998
-0.7375 -0.0500001 0.00109997
-0.725 -0.0500001 0.00109997
-0.7125 -0.0500001 0.00109997
-0.7 -0.0500001 0.00109997
-0.6875 -0.0500001 0.00109997
-0.675 -0.0500001 0.00109997
-0.6625 -0.0500001 0.00109997
-0.65 -0.0500001 0.00109996
-0.6375 -0.0500001 0.00109996
-0.625 -0.0500001 0.00109996
-0.6125 -0.0500001 0.00109996
-0.6 -0.0500001 0.00109996
-0.5875 -0.0500001 0.00109996
-0.575 -0.0500001 0.00109996
-0.5625 -0.0500001 0.00109996
-0.55 -0.0500001 0.00109995
-0.5375 -0.0500001 0.00109995
-0.525 -0.0500001 0.00109995
-0.5125 -0.0500001 0.00109995
-0.5 -0.0500001 0.00109995
-0.4875 -0.0500001 0.00109995
-0.475 -0.0500001 0.00109995
-0.4625 -0.0500001 0.00109994
-0.45 -0.0500002 0.00109994
-0.4375 -0.0500002 0.00109994
-0.425 -0.0500002 0.00109994
-0.4125 -0.0500002 0.00109994
-0.4 -0.0500002 0.00109994
-0.3875 -0.0500002 0.00109994
-0.375 -0.0500002 0.00109994
-0.3625 -0.0500002 0.00109993
-0.35 -0.0500002 0.00109993
-0.3375 -0.0500002 0.00109993
-0.325 -0.0500002 0.00109993
-0.3125 -0.0500002 0.00109993
-0.3 -0.0500002 0.00109993
-0.2875 -0.0500002 0.00109993
-0.275 -0.0500002 0.00109993
-0.2625 -0.0500002 0.00109992
-0.25 -0.0500002 0.00109992
-0.2375 -0.0500002 0.00109992
-0.225 -0.0500002 0.00109992
-0.2125 -0.0500002 0.00109992
-0.2 -0.0500002 0.00109992
-0.1875 -0.0500002 0.00109992
-0.175 -0.0500002 0.00109992
-0.1625 -0.0500002 0.00109991
-0.15 -0.0500002 0.00109991
-0.1375 -0.0500002 0.00109991
-0.125 -0.0500002 0.00109991
-0.1125 -0.0500002 0.00109991
-0.1 -0.0500002 0.00109991
-0.0875 -0.0500002 0.00109991
-0.075 -0.0500002 0.00109991
-0.0625 -0.0500002 0.00109991
-0.05 -0.0500003 0.00109991
-0.0375 -0.0500003 0.0010999
-0.025 -0.0500003 0.0010999
-0.0125 -0.0500003 0.0010999
2.10607e-13 -0.0500003 0.0010999
0.0125 -0.0500003 0.0010999
0.025 -0.0500003 0.0010999
0.0375 -0.0500003 0.0010999
0.05 -0.0500003 0.0010999
0.0625 -0.0500003 0.0010999
0.075 -0.0500003 0.0010999
0.0875 -0.0500003 0.0010999
0.1 -0.0500003 0.00109989
0.1125 -0.0500003 0.00109989
0.125 -0.0500003 0.00109989
0.1375 -0.0500003 0.00109989
0.15 -0.0500003 0.00109989
0.1625 -0.0500003 0.00109989
0.175 -0.0500003 0.00109989
0.1875 -0.0500003 0.00109989
0.2 -0.0500003 0.00109989
0.2125 -0.0500003 0.00109989
0.225 -0.0500003 0.00109989
0.2375 -0.0500003 0.00109989
0.25 -0.0500003 0.00109989
0.2625 -0.0500003 0.00109988
0.275 -0.0500003 0.00109988
0.2875 -0.0500003 0.00109988
0.3 -0.0500003 0.00109988
0.3125 -0.0500003 0.00109988
0.325 -0.0500003 0.00109988
0.3375 -0.0500003 0.00109988
0.35 -0.0500003 0.00109988
0.3625 -0.0500003 0.00109988
0.375 -0.0500003 0.00109988
0.3875 -0.0500003 0.00109988
0.4 -0.0500004 0.00109988
0.4125 -0.0500004 0.00109988
0.425 -0.0500004 0.00109988
0.4375 -0.0500004 0.00109988
0.45 -0.0500004 0.00109988
0.4625 -0.0500004 0.00109988
0.475 -0.0500004 0.00109988
0.4875 -0.0500004 0.00109988
0.5 -0.0500004 0.00109988
0.5125 -0.0500004 0.00109988
0.525 -0.0500004 0.00109988
0.5375 -0.0500004 0.00109988
0.55 -0.0500004 0.00109988
0.5625 -0.0500004 0.00109988
0.575 -0.0500004 0.00109987
0.5875 -0.0500004 0.00109987
0.6 -0.0500004 0.00109987
0.6125 -0.0500004 0.00109987
0.625 -0.0500004 0.00109987
0.6375 -0.0500004 0.00109987
0.65 -0.0500004 0.00109987
0.6625 -0.0500004 0.00109987
0.675 -0.0500004 0.00109987
0.6875 -0.0500004 0.00109987
0.7 -0.0500004 0.00109987
0.7125 -0.0500004 0.00109987
0.725 -0.0500004 0.00109987
0.7375 -0.0500004 0.00109987
0.75 -0.0500004 0.00109987
0.7625 -0.0500004 0.00109987
0.775 -0.0500004 0.00109987
0.7875 -0.0500004 0.00109987
0.8 -0.0500004 0.00109987
0.8125 -0.0500004 0.00109987
0.825 -0.0500004 0.00109987
0.8375 -0.0500004 0.00109987
0.85 -0.0500004 0.00109987
0.8625 -0.0500004 0.00109987
0.875 -0.0500004 0.00109987
0.8875 -0.0500004 0.00109987
0.9 -0.0500004 0.00109987
0.9125 -0.0500005 0.00109988
0.925 -0.0500005 0.00109988
0.9375 -0.0500005 0.00109988
0.95 -0.0500005 0.00109988
0.9625 -0.0500005 0.00109988
0.975 -0.0500005 0.00109988
0.9875 -0.0500005 0.00109988
1 -0.0500005 0.00109988
1.0125 -0.0500005 0.00109988
1.025 -0.0500005 0.00109988
1.0375 -0.0500005 0.00109988
1.05 -0.0500005 0.00109988
1.0625 -0.0500005 0.00109988
1.075 -0.0500005 0.00109988
1.0875 -0.0500005 0.00109988
1.1 -0.0500005 0.00109988
1.1125 -0.0500005 0.00109988
1.125 -0.0500005 0.00109988
1.1375 -0.0500005 0.00109988
1.15 -0.0500005 0.00109988
1.1625 -0.0500005 0.00109988
1.175 -0.0500005 0.00109988
1.1875 -0.0500005 0.00109988
1.2 -0.0500005 0.00109988
1.2125 -0.0500005 0.00109988
1.225 -0.0500005 0.00109988
1.2375 -0.0500005 0.00109989
1.25 -0.0500005 0.00109989
1.2625 -0.0500005 0.00109989
1.275 -0.0500005 0.00109989
1.2875 -0.0500005 0.00109989
1.3 -0.0500005 0.00109989
1.3125 -0.0500005 0.00109989
1.325 -0.0500005 0.00109989
1.3375 -0.0500005 0.00109989
1.35 -0.0500005 0.00109989
1.3625 -0.0500005 0.00109989
1.375 -0.0500005 0.00109989
1.3875 -0.0500005 0.00109989
1.4 -0.0500005 0.00109989
1.4125 -0.0500005 0.00109989
1.425 -0.0500005 0.00109989
1.4375 -0.0500005 0.0010999
1.45 -0.0500005 0.0010999
1.4625 -0.0500005 0.0010999
1.475 -0.0500005 0.0010999
1.4875 -0.0500005 0.0010999
1.5 -0.0500006 0.0010999
1.5125 -0.0500006 0.0010999
1.525 -0.0500006 0.0010999
1.5375 -0.0500006 0.0010999
1.55 -0.0500006 0.0010999
1.5625 -0.0500006 0.0010999
1.575 -0.0500006 0.0010999
1.5875 -0.0500006 0.0010999
1.6 -0.0500006 0.0010999
1.6125 -0.0500006 0.00109991
1.625 -0.0500006 0.00109991
1.6375 -0.0500006 0.00109991
1.65 -0.0500006 0.00109991
1.6625 -0.0500006 0.00109991
1.675 -0.0500006 0.00109991
1.6875 -0.0500006 0.00109991
1.7 -0.0500006 0.00109991
1.7125 -0.0500006 0.00109991
1.725 -0.0500006 0.00109991
1.7375 -0.0500006 0.00109991
1.75 -0.0500006 0.00109991
1.7625 -0.0500006 0.00109992
1.775 -0.0500006 0.00109992
1.7875 -0.0500006 0.00109992
1.8 -0.0500006 0.00109992
1.8125 -0.0500006 0.00109992
1.825 -0.0500006 0.00109992
1.8375 -0.0500006 0.00109992
1.85 -0.0500006 0.00109992
1.8625 -0.0500006 0.00109992
1.875 -0.0500006 0.00109992
1.8875 -0.0500006 0.00109992
1.9 -0.0500006 0.00109992
1.9125 -0.0500006 0.00109993
1.925 -0.0500006 0.00109993
1.9375 -0.0500006 0.00109993
1.95 -0.0500006 0.00109993
1.9625 -0.0500006 0.00109993
1.975 -0.0500006 0.00109993
1.9875 -0.0500006 0.00109993
2 -0.0500006 0.00109993
2.0125 -0.0500006 0.00109993
2.025 -0.0500006 0.00109993
2.0375 -0.0500006 0.00109993
2.05 -0.0500006 0.00109993
2.0625 -0.0500006 0.00109993
2.075 -0.0500006 0.00109994
2.0875 -0.0500006 0.00109994
2.1 -0.0500006 0.00109994
2.1125 -0.0500006 0.00109994
2.125 -0.0500006 0.00109994
2.1375 -0.0500006 0.00109994
2.15 -0.0500006 0.00109994
2.1625 -0.0500006 0.00109994
2.175 -0.0500007 0.00109994
2.1875 -0.0500007 0.00109994
2.2 -0.0500007 0.00109994
2.2125 -0.0500007 0.00109994
2.225 -0.0500007 0.00109995
2.2375 -0.0500007 0.00109995
2.25 -0.0500007 0.00109995
2.2625 -0.0500007 0.00109995
2.275 -0.0500007 0.00109995
2.2875 -0.0500007 0.00109995
2.3 -0.0500007 0.00109995
2.3125 -0.0500007 0.00109995
2.325 -0.0500007 0.00109995
2.3375 -0.0500007 0.00109995
2.35 -0.0500007 0.00109995
2.3625 -0.0500007 0.00109995
2.375 -0.0500007 0.00109995
2.3875 -0.0500007 0.00109996
2.4 -0.0500007 0.00109996
2.4125 -0.0500007 0.00109996
2.425 -0.0500007 0.00109996
2.4375 -0.0500007 0.00109996
2.45 -0.0500007 0.00109996
2.4625 -0.0500007 0.00109996
2.475 -0.0500007 0.00109996
2.4875 -0.0500007 0.00109996
2.5 -0.0500007 0.00109996
2.5125 -0.0500007 0.00109996
2.525 -0.0500007 0.00109996
2.5375 -0.0500007 0.00109996
2.55 -0.0500007 0.00109996
2.5625 -0.0500007 0.00109997
2.575 -0.0500007 0.00109997
2.5875 -0.0500007 0.00109997
2.6 -0.0500007 0.00109997
2.6125 -0.0500007 0.00109997
2.625 -0.0500007 0.00109997
2.6375 -0.0500007 0.00109997
2.65 -0.0500007 0.00109997
2.6625 -0.0500007 0.00109997
2.675 -0.0500007 0.00109997
2.6875 -0.0500007 0.00109997
2.7 -0.0500007 0.00109997
2.7125 -0.0500007 0.00109997
2.725 -0.0500007 0.00109997
2.7375 -0.0500007 0.00109997
2.75 -0.0500007 0.00109997
2.7625 -0.0500007 0.00109998
2.775 -0.0500007 0.00109998
2.7875 -0.0500007 0.00109998
2.8 -0.0500007 0.00109998
2.8125 -0.0500007 0.00109998
2.825 -0.0500007 0.00109998
2.8375 -0.0500007 0.00109998
2.85 -0.0500007 0.00109998
2.8625 -0.0500008 0.00109998
2.875 -0.0500008 0.00109998
2.8875 -0.0500008 0.00109998
2.9 -0.0500008 0.00109998
2.9125 -0.0500008 0.00109998
2.925 -0.0500008 0.00109998
2.9375 -0.0500008 0.00109998
2.95 -0.0500008 0.00109998
2.9625 -0.0500008 0.00109998
2.975 -0.0500008 0.00109998
2.9875 -0.0500008 0.00109998
3 -0.0500008 0.00109998
3.0125 -0.0500008 0.00109999
3.025 -0.0500008 0.00109999
3.0375 -0.0500008 0.00109999
3.05 -0.0500008 0.00109999
3.0625 -0.0500008 0.00109999
3.075 -0.0500008 0.00109999
3.0875 -0.0500008 0.00109999
3.1 -0.0500008 0.00109999
3.1125 -0.0500008 0.00109999
3.125 -0.0500008 0.00109999
3.1375 -0.0500008 0.00109999
3.15 -0.0500008 0.00109999
3.1625 -0.0500008 0.00109999
3.175 -0.0500008 0.00109999
3.1875 -0.0500008 0.00109999
3.2 -0.0500008 0.00109999
3.2125 -0.0500008 0.00109999
3.225 -0.0500008 0.00109999
3.2375 -0.0500008 0.00109999
3.25 -0.0500008 0.00109999
3.2625 -0.0500008 0.00109999
3.275 -0.0500008 0.00109999
3.2875 -0.0500008 0.00109999
3.3 -0.0500008 0.00109999
3.3125 -0.0500008 0.00109999
3.325 -0.0500008 0.00109999
3.3375 -0.0500008 0.00109999
3.35 -0.0500008 0.0011
3.3625 -0.0500008 0.0011
[...]
POINT_DATA 15780
 FIELD attributes 1
U 3 15780 float
30.0002 	-7.01786e-06 	-6.30587e-06 30.0002 	-6.84337e-06 	-6.51454e-06 30.0002 	-6.66888e-06 	-6.72321e-06 30.0002 	-6.4944e-06 	-6.93188e-06 30.0002 	-6.31991e-06 	-7.14054e-06 30.0002 	-6.14543e-06 	-7.34921e-06 30.0004 	-1.23851e-05 	-1.26099e-06 30.0004 	-1.23851e-05 	-1.26099e-06 30.0004 	-1.23851e-05 	-1.26099e-06 30.0004 	-1.23851e-05 	-1.26099e-06 30.0002 	-7.05073e-08 	-6.84367e-06 30.0005 	-1.0709e-05 	-1.68704e-06 30.0005 	-1.0709e-05 	-1.68704e-06 30.0005 	-1.0709e-05 	-1.68704e-06 30.0005 	-1.0709e-05 	-1.68704e-06 30.0002 	-7.21956e-08 	-6.59608e-06 30.0005 	-9.95848e-06 	-2.08022e-06 30.0005 	-9.95847e-06 	-2.08022e-06 30.0005 	-9.95846e-06 	-2.08022e-06 30.0005 	-9.95845e-06 	-2.08022e-06 30.0003 	-4.59309e-06 	-6.24726e-06 30.0005 	-9.69172e-06 	-2.34895e-06 30.0005 	-9.69171e-06 	-2.34895e-06 30.0005 	-9.6917e-06 	-2.34894e-06 30.0005 	-9.6917e-06 	-2.34894e-06 30.0003 	-7.58066e-08 	-6.57615e-06 30.0005 	-9.52356e-06 	-2.49782e-06 30.0005 	-9.52355e-06 	-2.49782e-06 30.0005 	-9.52354e-06 	-2.49781e-06 30.0005 	-9.52353e-06 	-2.49781e-06 30.0003 	-7.75732e-08 	-6.52627e-06 30.0005 	-9.3872e-06 	-2.55606e-06 30.0005 	-9.3872e-06 	-2.55606e-06 30.0005 	-9.38719e-06 	-2.55606e-06 30.0005 	-9.38718e-06 	-2.55606e-06 30.0003 	-4.26693e-06 	-6.08529e-06 30.0005 	-9.27979e-06 	-2.55829e-06 30.0005 	-9.27978e-06 	-2.55829e-06 30.0005 	-9.27977e-06 	-2.55829e-06 30.0005 	-9.27976e-06 	-2.55829e-06 30.0003 	-4.19933e-06 	-5.97789e-06 30.0006 	-9.18761e-06 	-2.53043e-06 30.0006 	-9.18761e-06 	-2.53043e-06 30.0006 	-9.1876e-06 	-2.53042e-06 30.0006 	-9.18759e-06 	-2.53042e-06 30.0003 	-8.28945e-08 	-6.20127e-06 30.0006 	-9.09755e-06 	-2.48118e-06 30.0006 	-9.09755e-06 	-2.48118e-06 30.0006 	-9.09754e-06 	-2.48118e-06 30.0006 	-9.09753e-06 	-2.48118e-06 30.0003 	-8.46488e-08 	-6.05424e-06 30.0006 	-9.0051e-06 	-2.41361e-06 30.0006 	-9.0051e-06 	-2.41361e-06 30.0006 	-9.00509e-06 	-2.41361e-06 30.0006 	-9.00508e-06 	-2.41361e-06 30.0003 	-8.6403e-08 	-5.88783e-06 30.0006 	-8.90896e-06 	-2.32973e-06 30.0006 	-8.90896e-06 	-2.32973e-06 30.0006 	-8.90895e-06 	-2.32972e-06 30.0006 	-8.90894e-06 	-2.32972e-06 30.0003 	-3.93794e-06 	-5.36347e-06 30.0006 	-8.80892e-06 	-2.23275e-06 30.0006 	-8.80891e-06 	-2.23275e-06 30.0006 	-8.80891e-06 	-2.23274e-06 30.0006 	-8.8089e-06 	-2.23274e-06 30.0003 	-3.86415e-06 	-5.16476e-06 30.0006 	-8.70465e-06 	-2.12414e-06 30.0006 	-8.70464e-06 	-2.12414e-06 30.0006 	-8.70464e-06 	-2.12414e-06 30.0006 	-8.70463e-06 	-2.12414e-06 30.0003 	-9.16658e-08 	-5.28458e-06 30.0006 	-8.59645e-06 	-2.00508e-06 30.0006 	-8.59644e-06 	-2.00508e-06 30.0006 	-8.59644e-06 	-2.00508e-06 30.0006 	-8.59643e-06 	-2.00508e-06 30.0003 	-3.70454e-06 	-4.7194e-06 30.0007 	-8.48507e-06 	-1.87669e-06 30.0007 	-8.48507e-06 	-1.87669e-06 30.0007 	-8.48506e-06 	-1.87668e-06 30.0007 	-8.48505e-06 	-1.87668e-06 30.0003 	-3.61943e-06 	-4.47432e-06 30.0007 	-8.37172e-06 	-1.73884e-06 30.0007 	-8.37171e-06 	-1.73884e-06 30.0007 	-8.37171e-06 	-1.73884e-06 30.0007 	-8.3717e-06 	-1.73884e-06 30.0004 	-9.68689e-08 	-4.5432e-06 30.0007 	-8.2601e-06 	-1.59804e-06 30.0007 	-8.2601e-06 	-1.59803e-06 30.0007 	-8.26009e-06 	-1.59803e-06 30.0007 	-8.26009e-06 	-1.59803e-06 30.0004 	-9.85878e-08 	-4.27125e-06 30.0007 	-8.14809e-06 	-1.46323e-06 30.0007 	-8.14808e-06 	-1.46323e-06 30.0007 	-8.14808e-06 	-1.46323e-06 30.0007 	-8.14808e-06 	-1.46323e-06 30.0004 	-1.0031e-07 	-3.98928e-06 30.0007 	-8.02001e-06 	-1.32072e-06 30.0007 	-8.02e-06 	-1.32072e-06 30.0007 	-8.02e-06 	-1.32072e-06 30.0007 	-8.02e-06 	-1.32072e-06 30.0004 	-3.25102e-06 	-3.37796e-06 30.0007 	-7.8812e-06 	-1.16801e-06 30.0007 	-7.8812e-06 	-1.16801e-06 30.0007 	-7.88119e-06 	-1.16801e-06 30.0007 	-7.88119e-06 	-1.16801e-06 30.0004 	-1.03719e-07 	-3.40289e-06 30.0007 	-7.74525e-06 	-1.00788e-06 30.0007 	-7.74525e-06 	-1.00788e-06 30.0007 	-7.74525e-06 	-1.00788e-06 30.0007 	-7.74524e-06 	-1.00788e-06 30.0004 	-1.05416e-07 	-3.10328e-06 30.0007 	-7.61111e-06 	-8.41863e-07 30.0007 	-7.6111e-06 	-8.41863e-07 30.0007 	-7.6111e-06 	-8.41862e-07 30.0007 	-7.6111e-06 	-8.41862e-07 30.0004 	-2.93182e-06 	-2.4879e-06 30.0007 	-7.47532e-06 	-6.70209e-07 30.0007 	-7.47532e-06 	-6.70209e-07 30.0007 	-7.47532e-06 	-6.70209e-07 30.0007 	-7.47531e-06 	-6.70209e-07 30.0004 	-2.82533e-06 	-2.18315e-06 30.0007 	-7.34316e-06 	-4.97055e-07 30.0007 	-7.34315e-06 	-4.97055e-07 30.0007 	-7.34315e-06 	-4.97055e-07 30.0007 	-7.34315e-06 	-4.97055e-07 30.0004 	-1.10467e-07 	-2.17113e-06 30.0007 	-7.21534e-06 	-3.17328e-07 30.0007 	-7.21534e-06 	-3.17328e-07 30.0007 	-7.21534e-06 	-3.17328e-07 30.0007 	-7.21534e-06 	-3.17327e-07 30.0004 	-1.12132e-07 	-1.85339e-06 30.0007 	-7.09859e-06 	-1.38225e-07 30.0007 	-7.09859e-06 	-1.38225e-07 30.0007 	-7.09859e-06 	-1.38225e-07 30.0007 	-7.09859e-06 	-1.38225e-07 30.0004 	-1.13783e-07 	-1.54905e-06 30.0007 	-6.98525e-06 	4.08429e-08 30.0007 	-6.98525e-06 	4.08429e-08 30.0007 	-6.98525e-06 	4.08429e-08 30.0007 	-6.98525e-06 	4.08429e-08 30.0004 	-2.43884e-06 	-9.58533e-07 30.0007 	-6.87164e-06 	2.14656e-07 30.0007 	-6.87164e-06 	2.14656e-07 30.0007 	-6.87164e-06 	2.14656e-07 30.0007 	-6.87164e-06 	2.14656e-07 30.0004 	-2.34722e-06 	-6.82332e-07 30.0007 	-6.75344e-06 	3.90704e-07 30.0007 	-6.75344e-06 	3.90704e-07 30.0007 	-6.75344e-06 	3.90704e-07 30.0007 	-6.75344e-06 	3.90704e-07 30.0004 	-1.18707e-07 	-7.09796e-07 30.0007 	-6.6429e-06 	5.64357e-07 30.0007 	-6.6429e-06 	5.64357e-07 30.0007 	-6.6429e-06 	5.64357e-07 30.0007 	-6.6429e-06 	5.64357e-07 30.0004 	-2.16685e-06 	-1.45477e-07 30.0007 	-6.53591e-06 	7.27385e-07 30.0007 	-6.53591e-06 	7.27385e-07 30.0007 	-6.53591e-06 	7.27385e-07 30.0007 	-6.53591e-06 	7.27385e-07 30.0004 	-2.08117e-06 	1.13799e-07 30.0007 	-6.43059e-06 	8.78823e-07 30.0007 	-6.43059e-06 	8.78823e-07 30.0007 	-6.43059e-06 	8.78824e-07 30.0007 	-6.43059e-06 	8.78824e-07 30.0004 	-1.23591e-07 	7.05446e-08 30.0007 	-6.32297e-06 	1.01777e-06 30.0007 	-6.32297e-06 	1.01777e-06 30.0007 	-6.32297e-06 	1.01777e-06 30.0007 	-6.32298e-06 	1.01777e-06 30.0004 	-1.25171e-07 	3.15771e-07 30.0007 	-6.2166e-06 	1.1406e-06 30.0007 	-6.2166e-06 	1.1406e-06 30.0007 	-6.2166e-06 	1.1406e-06 30.0007 	-6.21661e-06 	1.1406e-06 30.0004 	-1.26757e-07 	5.45489e-07 30.0007 	-6.11534e-06 	1.2563e-06 30.0007 	-6.11534e-06 	1.2563e-06 30.0007 	-6.11534e-06 	1.2563e-06 30.0007 	-6.11535e-06 	1.2563e-06 30.0004 	-1.76435e-06 	1.03203e-06 30.0007 	-6.02261e-06 	1.37125e-06 30.0007 	-6.02262e-06 	1.37125e-06 30.0007 	-6.02262e-06 	1.37125e-06 30.0007 	-6.02262e-06 	1.37125e-06 30.0004 	-1.29865e-07 	9.36904e-07 30.0007 	-5.94295e-06 	1.48848e-06 30.0007 	-5.94295e-06 	1.48848e-06 30.0007 	-5.94295e-06 	1.48848e-06 30.0007 	-5.94296e-06 	1.48848e-06 30.0004 	-1.31367e-07 	1.10452e-06 30.0007 	-5.87174e-06 	1.59287e-06 30.0007 	-5.87174e-06 	1.59287e-06 30.0007 	-5.87175e-06 	1.59287e-06 30.0007 	-5.87175e-06 	1.59287e-06 30.0004 	-1.59148e-06 	1.53872e-06 30.0007 	-5.80214e-06 	1.67929e-06 30.0007 	-5.80214e-06 	1.6793e-06 30.0007 	-5.80214e-06 	1.6793e-06 30.0007 	-5.80215e-06 	1.6793e-06 30.0003 	-1.54427e-06 	1.67817e-06 30.0007 	-5.73405e-06 	1.75008e-06 30.0007 	-5.73405e-06 	1.75009e-06 30.0007 	-5.73406e-06 	1.75009e-06 30.0007 	-5.73406e-06 	1.75009e-06 30.0003 	-1.36084e-07 	1.52468e-06 30.0006 	-5.66892e-06 	1.80978e-06 30.0006 	-5.66892e-06 	1.80979e-06 30.0006 	-5.66893e-06 	1.80979e-06 30.0006 	-5.66893e-06 	1.80979e-06 30.0003 	-1.37645e-07 	1.63223e-06 30.0006 	-5.60885e-06 	1.85991e-06 30.0006 	-5.60886e-06 	1.85992e-06 30.0006 	-5.60886e-06 	1.85992e-06 30.0006 	-5.60886e-06 	1.85992e-06 30.0003 	-1.3912e-07 	1.72395e-06 30.0006 	-5.55457e-06 	1.90041e-06 30.0006 	-5.55457e-06 	1.90041e-06 30.0006 	-5.55457e-06 	1.90041e-06 30.0006 	-5.55458e-06 	1.90041e-06 30.0003 	-1.38898e-06 	2.07099e-06 30.0006 	-5.50574e-06 	1.93107e-06 30.0006 	-5.50574e-06 	1.93107e-06 30.0006 	-5.50575e-06 	1.93107e-06 30.0006 	-5.50575e-06 	1.93107e-06 30.0003 	-1.36195e-06 	2.13092e-06 30.0006 	-5.46199e-06 	1.95181e-06 30.0006 	-5.462e-06 	1.95181e-06 30.0006 	-5.462e-06 	1.95181e-06 30.0006 	-5.462e-06 	1.95181e-06 30.0003 	-1.43171e-07 	1.90822e-06 30.0006 	-5.42321e-06 	1.96275e-06 30.0006 	-5.42321e-06 	1.96276e-06 30.0006 	-5.42322e-06 	1.96276e-06 30.0006 	-5.42322e-06 	1.96276e-06 30.0003 	-1.32358e-06 	2.20762e-06 30.0006 	-5.38926e-06 	1.96429e-06 30.0006 	-5.38926e-06 	1.96429e-06 30.0006 	-5.38926e-06 	1.96429e-06 30.0006 	-5.38927e-06 	1.96429e-06 30.0003 	-1.31181e-06 	2.2255e-06 30.0006 	-5.36008e-06 	1.95689e-06 30.0006 	-5.36009e-06 	1.95689e-06 30.0006 	-5.36009e-06 	1.95689e-06 30.0006 	-5.3601e-06 	1.95689e-06 30.0003 	-1.47063e-07 	1.96613e-06 30.0005 	-5.33559e-06 	1.94109e-06 30.0005 	-5.33559e-06 	1.94109e-06 30.0005 	-5.3356e-06 	1.9411e-06 30.0005 	-5.3356e-06 	1.9411e-06 30.0003 	-1.48318e-07 	1.96052e-06 30.0005 	-5.3156e-06 	1.9179e-06 30.0005 	-5.31561e-06 	1.91791e-06 30.0005 	-5.31561e-06 	1.91791e-06 30.0005 	-5.31562e-06 	1.91791e-06 30.0003 	-1.49538e-07 	1.9442e-06 30.0005 	-5.30002e-06 	1.88798e-06 30.0005 	-5.30003e-06 	1.88798e-06 30.0005 	-5.30003e-06 	1.88798e-06 30.0005 	-5.30004e-06 	1.88798e-06 30.0003 	-1.30926e-06 	2.17897e-06 30.0005 	-5.28869e-06 	1.85188e-06 30.0005 	-5.2887e-06 	1.85188e-06 30.0005 	-5.2887e-06 	1.85188e-06 30.0005 	-5.2887e-06 	1.85188e-06 30.0003 	-1.519e-07 	1.88225e-06 30.0005 	-5.28142e-06 	1.81006e-06 30.0005 	-5.28142e-06 	1.81006e-06 30.0005 	-5.28143e-06 	1.81006e-06 30.0005 	-5.28143e-06 	1.81006e-06 30.0003 	-1.53025e-07 	1.83813e-06 30.0005 	-5.27799e-06 	1.76314e-06 30.0005 	-5.27799e-06 	1.76314e-06 30.0005 	-5.278e-06 	1.76314e-06 30.0005 	-5.278e-06 	1.76314e-06 30.0003 	-1.3485e-06 	2.04405e-06 30.0005 	-5.27818e-06 	1.7116e-06 30.0005 	-5.27818e-06 	1.71161e-06 30.0005 	-5.27818e-06 	1.71161e-06 30.0005 	-5.27819e-06 	1.71161e-06 30.0003 	-1.36857e-06 	1.98421e-06 30.0005 	-5.28175e-06 	1.65597e-06 30.0005 	-5.28175e-06 	1.65598e-06 30.0005 	-5.28175e-06 	1.65598e-06 30.0005 	-5.28176e-06 	1.65598e-06 30.0002 	-1.56258e-07 	1.66277e-06 30.0005 	-5.28855e-06 	1.59666e-06 30.0005 	-5.28856e-06 	1.59667e-06 30.0005 	-5.28856e-06 	1.59667e-06 30.0005 	-5.28856e-06 	1.59667e-06 30.0002 	-1.57318e-07 	1.59252e-06 30.0004 	-5.29852e-06 	1.53414e-06 30.0004 	-5.29853e-06 	1.53414e-06 30.0004 	-5.29853e-06 	1.53414e-06 30.0004 	-5.29853e-06 	1.53414e-06 30.0002 	-1.58401e-07 	1.51766e-06 30.0004 	-5.31148e-06 	1.46888e-06 30.0004 	-5.31148e-06 	1.46889e-06 30.0004 	-5.31149e-06 	1.46889e-06 30.0004 	-5.31149e-06 	1.46889e-06 30.0002 	-1.48025e-06 	1.6906e-06 30.0004 	-5.32704e-06 	1.40143e-06 30.0004 	-5.32704e-06 	1.40143e-06 30.0004 	-5.32705e-06 	1.40143e-06 30.0004 	-5.32705e-06 	1.40143e-06 30.0002 	-1.51478e-06 	1.60711e-06 30.0004 	-5.34493e-06 	1.33219e-06 30.0004 	-5.34493e-06 	1.33219e-06 30.0004 	-5.34493e-06 	1.33219e-06 30.0004 	-5.34494e-06 	1.33219e-06 30.0002 	-1.61664e-07 	1.27184e-06 30.0004 	-5.36495e-06 	1.26148e-06 30.0004 	-5.36495e-06 	1.26148e-06 30.0004 	-5.36496e-06 	1.26148e-06 30.0004 	-5.36496e-06 	1.26148e-06 30.0002 	-1.59011e-06 	1.43248e-06 30.0004 	-5.38678e-06 	1.18981e-06 30.0004 	-5.38678e-06 	1.18981e-06 30.0004 	-5.38678e-06 	1.18981e-06 30.0004 	-5.38679e-06 	1.18981e-06 30.0002 	-1.63059e-06 	1.3424e-06 30.0004 	-5.41041e-06 	1.11748e-06 30.0004 	-5.41041e-06 	1.11748e-06 30.0004 	-5.41041e-06 	1.11748e-06 30.0004 	-5.41041e-06 	1.11748e-06 30.0002 	-1.6468e-07 	1.00607e-06 30.0004 	-5.4355e-06 	1.04481e-06 30.0004 	-5.4355e-06 	1.04481e-06 30.0004 	-5.4355e-06 	1.04481e-06 30.0004 	-5.43551e-06 	1.04481e-06 30.0002 	-1.65617e-07 	9.15597e-07 30.0004 	-5.46117e-06 	9.72273e-07 30.0004 	-5.46117e-06 	9.72273e-07 30.0004 	-5.46118e-06 	9.72273e-07 30.0004 	-5.46118e-06 	9.72274e-07 30.0002 	-1.66523e-07 	8.24977e-07 30.0004 	-5.48724e-06 	8.99498e-07 30.0004 	-5.48724e-06 	8.99498e-07 30.0004 	-5.48724e-06 	8.99498e-07 30.0004 	-5.48724e-06 	8.99499e-07 30.0002 	-1.80749e-06 	9.75407e-07 30.0004 	-5.51404e-06 	8.25963e-07 30.0004 	-5.51404e-06 	8.25963e-07 30.0004 	-5.51404e-06 	8.25963e-07 30.0004 	-5.51404e-06 	8.25964e-07 30.0002 	-1.68237e-07 	6.4361e-07 30.0003 	-5.54379e-06 	7.52003e-07 30.0003 	-5.54379e-06 	7.52003e-07 30.0003 	-5.54379e-06 	7.52003e-07 30.0003 	-5.54379e-06 	7.52003e-07 30.0002 	-1.69057e-07 	5.52617e-07 30.0003 	-5.57828e-06 	6.77459e-07 30.0003 	-5.57828e-06 	6.77459e-07 30.0003 	-5.57828e-06 	6.7746e-07 30.0003 	-5.57828e-06 	6.7746e-07 30.0002 	-1.95586e-06 	7.01302e-07 30.0003 	-5.61515e-06 	6.04398e-07 30.0003 	-5.61515e-06 	6.04398e-07 30.0003 	-5.61515e-06 	6.04398e-07 30.0003 	-5.61515e-06 	6.04398e-07 30.0002 	-2.00805e-06 	6.11672e-07 30.0003 	-5.65121e-06 	5.3468e-07 30.0003 	-5.65122e-06 	5.3468e-07 30.0003 	-5.65122e-06 	5.34681e-07 30.0003 	-5.65122e-06 	5.34681e-07 30.0002 	-1.71547e-07 	2.80926e-07 30.0003 	-5.68233e-06 	4.67659e-07 30.0003 	-5.68233e-06 	4.67659e-07 30.0003 	-5.68233e-06 	4.67659e-07 30.0003 	-5.68233e-06 	4.67659e-07 30.0002 	-1.72376e-07 	1.97312e-07 30.0003 	-5.71076e-06 	4.03214e-07 30.0003 	-5.71076e-06 	4.03214e-07 30.0003 	-5.71076e-06 	4.03214e-07 30.0003 	-5.71077e-06 	4.03214e-07 30.0002 	-1.73178e-07 	1.16383e-07 30.0003 	-5.73894e-06 	3.39254e-07 30.0003 	-5.73894e-06 	3.39254e-07 30.0003 	-5.73894e-06 	3.39254e-07 30.0003 	-5.73894e-06 	3.39254e-07 30.0002 	-2.20131e-06 	2.74075e-07 30.0003 	-5.76692e-06 	2.75287e-07 30.0003 	-5.76692e-06 	2.75287e-07 30.0003 	-5.76692e-06 	2.75287e-07 30.0003 	-5.76692e-06 	2.75287e-07 30.0002 	-2.24823e-06 	1.96332e-07 30.0003 	-5.79362e-06 	2.10799e-07 30.0003 	-5.79362e-06 	2.10799e-07 30.0003 	-5.79362e-06 	2.10799e-07 30.0003 	-5.79362e-06 	2.10799e-07 30.0002 	-1.75328e-07 	-1.09165e-07 30.0003 	-5.82161e-06 	1.4879e-07 30.0003 	-5.82161e-06 	1.4879e-07 30.0003 	-5.82161e-06 	1.4879e-07 30.0003 	-5.82161e-06 	1.4879e-07 30.0002 	-2.34199e-06 	4.46479e-08 30.0003 	-5.85088e-06 	8.99977e-08 30.0003 	-5.85088e-06 	8.99977e-08 30.0003 	-5.85088e-06 	8.99977e-08 30.0003 	-5.85088e-06 	8.99977e-08 30.0002 	-2.38929e-06 	-2.91283e-08 30.0003 	-5.88129e-06 	3.48278e-08 30.0003 	-5.88129e-06 	3.48278e-08 30.0003 	-5.88129e-06 	3.48278e-08 30.0003 	-5.88129e-06 	3.48278e-08 30.0002 	-1.77311e-07 	-3.30795e-07 30.0003 	-5.91299e-06 	-1.70604e-08 30.0003 	-5.91299e-06 	-1.70604e-08 30.0003 	-5.91299e-06 	-1.70604e-08 30.0003 	-5.91299e-06 	-1.70604e-08 30.0002 	-1.77924e-07 	-4.01828e-07 30.0003 	-5.94612e-06 	-6.90408e-08 30.0003 	-5.94612e-06 	-6.90408e-08 30.0003 	-5.94612e-06 	-6.90408e-08 30.0003 	-5.94612e-06 	-6.90408e-08 30.0002 	-1.7853e-07 	-4.67098e-07 30.0003 	-5.97808e-06 	-1.23301e-07 30.0003 	-5.97808e-06 	-1.23301e-07 30.0003 	-5.97808e-06 	-1.23301e-07 30.0003 	-5.97808e-06 	-1.23301e-07 30.0002 	-2.5808e-06 	-3.01403e-07 30.0003 	-6.00586e-06 	-1.77946e-07 30.0003 	-6.00586e-06 	-1.77946e-07 30.0003 	-6.00586e-06 	-1.77946e-07 30.0003 	-6.00586e-06 	-1.77946e-07 30.0002 	-1.79714e-07 	-5.84911e-07 30.0003 	-6.02998e-06 	-2.29205e-07 30.0003 	-6.02998e-06 	-2.29205e-07 30.0003 	-6.02998e-06 	-2.29205e-07 30.0003 	-6.02998e-06 	-2.29205e-07 30.0002 	-1.80304e-07 	-6.42175e-07 30.0003 	-6.05323e-06 	-2.76166e-07 30.0003 	-6.05323e-06 	-2.76166e-07 30.0003 	-6.05323e-06 	-2.76166e-07 30.0003 	-6.05323e-06 	-2.76166e-07 30.0002 	-2.70887e-06 	-4.79005e-07 30.0003 	-6.07709e-06 	-3.19643e-07 30.0003 	-6.07709e-06 	-3.19643e-07 30.0003 	-6.07709e-06 	-3.19643e-07 30.0003 	-6.07709e-06 	-3.19643e-07 30.0002 	-2.7499e-06 	-5.3405e-07 30.0003 	-6.10131e-06 	-3.6118e-07 30.0003 	-6.10131e-06 	-3.6118e-07 30.0003 	-6.10131e-06 	-3.6118e-07 30.0003 	-6.10131e-06 	-3.6118e-07 30.0002 	-1.82049e-07 	-8.03815e-07 30.0003 	-6.12536e-06 	-4.01376e-07 30.0003 	-6.12535e-06 	-4.01376e-07 30.0003 	-6.12535e-06 	-4.01376e-07 30.0003 	-6.12535e-06 	-4.01376e-07 30.0001 	-1.82601e-07 	-8.53135e-07 30.0003 	-6.14877e-06 	-4.4037e-07 30.0003 	-6.14877e-06 	-4.4037e-07 30.0003 	-6.14877e-06 	-4.4037e-07 30.0003 	-6.14877e-06 	-4.4037e-07 30.0001 	-1.83143e-07 	-9.00344e-07 30.0003 	-6.17143e-06 	-4.77986e-07 30.0003 	-6.17143e-06 	-4.77985e-07 30.0003 	-6.17143e-06 	-4.77985e-07 30.0003 	-6.17143e-06 	-4.77985e-07 30.0001 	-2.9094e-06 	-7.31481e-07 30.0003 	-6.19323e-06 	-5.14202e-07 30.0003 	-6.19323e-06 	-5.14202e-07 30.0003 	-6.19323e-06 	-5.14202e-07 30.0003 	-6.19323e-06 	-5.14202e-07 30.0001 	-2.94728e-06 	-7.75608e-07 30.0003 	-6.21413e-06 	-5.48827e-07 30.0003 	-6.21413e-06 	-5.48827e-07 30.0003 	-6.21412e-06 	-5.48827e-07 30.0003 	-6.21412e-06 	-5.48827e-07 30.0001 	-1.84659e-07 	-1.02956e-06 30.0003 	-6.23422e-06 	-5.82043e-07 30.0003 	-6.23422e-06 	-5.82043e-07 30.0003 	-6.23422e-06 	-5.82043e-07 30.0003 	-6.23421e-06 	-5.82042e-07 30.0001 	-3.02027e-06 	-8.57494e-07 30.0003 	-6.2535e-06 	-6.13881e-07 30.0003 	-6.2535e-06 	-6.13881e-07 30.0003 	-6.2535e-06 	-6.13881e-07 30.0003 	-6.25349e-06 	-6.13881e-07 30.0001 	-3.05536e-06 	-8.95502e-07 30.0003 	-6.27199e-06 	-6.44407e-07 30.0003 	-6.27199e-06 	-6.44407e-07 30.0003 	-6.27199e-06 	-6.44407e-07 30.0003 	-6.27198e-06 	-6.44407e-07 30.0001 	-1.86082e-07 	-1.14087e-06 30.0003 	-6.28969e-06 	-6.73606e-07 30.0003 	-6.28968e-06 	-6.73606e-07 30.0003 	-6.28968e-06 	-6.73605e-07 30.0003 	-6.28968e-06 	-6.73605e-07 30.0001 	-1.86526e-07 	-1.17463e-06 30.0003 	-6.30672e-06 	-7.01423e-07 30.0003 	-6.30671e-06 	-7.01423e-07 30.0003 	-6.30671e-06 	-7.01422e-07 30.0003 	-6.30671e-06 	-7.01422e-07 30.0001 	-1.86976e-07 	-1.20671e-06 30.0003 	-6.3228e-06 	-7.27848e-07 30.0003 	-6.3228e-06 	-7.27848e-07 30.0003 	-6.3228e-06 	-7.27848e-07 30.0003 	-6.32279e-06 	-7.27848e-07 30.0001 	-3.1868e-06 	-1.03102e-06 30.0003 	-6.33806e-06 	-7.52962e-07 30.0003 	-6.33806e-06 	-7.52961e-07 30.0003 	-6.33806e-06 	-7.52961e-07 30.0003 	-6.33806e-06 	-7.52961e-07 30.0001 	-1.87839e-07 	-1.266e-06 30.0003 	-6.35257e-06 	-7.76931e-07 30.0003 	-6.35257e-06 	-7.7693e-07 30.0003 	-6.35257e-06 	-7.7693e-07 30.0003 	-6.35257e-06 	-7.7693e-07 30.0001 	-1.8825e-07 	-1.29335e-06 30.0003 	-6.3664e-06 	-7.998e-07 30.0003 	-6.36639e-06 	-7.998e-07 30.0003 	-6.36639e-06 	-7.998e-07 30.0003 	-6.36639e-06 	-7.998e-07 30.0001 	-3.27621e-06 	-1.11607e-06 30.0003 	-6.37949e-06 	-8.21525e-07 30.0003 	-6.37948e-06 	-8.21525e-07 30.0003 	-6.37948e-06 	-8.21525e-07 30.0003 	-6.37948e-06 	-8.21525e-07 30.0001 	-3.30432e-06 	-1.14155e-06 30.0003 	-6.39178e-06 	-8.41964e-07 30.0003 	-6.39178e-06 	-8.41963e-07 30.0003 	-6.39178e-06 	-8.41963e-07 30.0003 	-6.39177e-06 	-8.41963e-07 30.0001 	-1.89453e-07 	-1.36689e-06 30.0003 	-6.40341e-06 	-8.61354e-07 30.0003 	-6.40341e-06 	-8.61354e-07 30.0003 	-6.40341e-06 	-8.61354e-07 30.0003 	-6.40341e-06 	-8.61353e-07 30.0001 	-1.8984e-07 	-1.38877e-06 30.0003 	-6.41437e-06 	-8.79792e-07 30.0003 	-6.41437e-06 	-8.79792e-07 30.0003 	-6.41436e-06 	-8.79792e-07 30.0003 	-6.41436e-06 	-8.79791e-07 30.0001 	-1.90221e-07 	-1.40942e-06 30.0003 	-6.42462e-06 	-8.97271e-07 30.0003 	-6.42461e-06 	-8.97271e-07 30.0003 	-6.42461e-06 	-8.97271e-07 30.0003 	-6.42461e-06 	-8.97271e-07 30.0001 	-3.40863e-06 	-1.23054e-06 30.0003 	-6.43419e-06 	-9.13858e-07 30.0003 	-6.43419e-06 	-9.13858e-07 30.0003 	-6.43419e-06 	-9.13857e-07 30.0003 	-6.43419e-06 	-9.13857e-07 30.0001 	-3.43276e-06 	-1.24987e-06 30.0003 	-6.44307e-06 	-9.29545e-07 30.0003 	-6.44307e-06 	-9.29545e-07 30.0003 	-6.44306e-06 	-9.29545e-07 30.0003 	-6.44306e-06 	-9.29544e-07 30.0001 	-1.91298e-07 	-1.46458e-06 30.0003 	-6.45134e-06 	-9.44399e-07 30.0003 	-6.45133e-06 	-9.44398e-07 30.0003 	-6.45133e-06 	-9.44398e-07 30.0003 	-6.45133e-06 	-9.44398e-07 30.0001 	-3.47882e-06 	-1.28536e-06 30.0003 	-6.45902e-06 	-9.58399e-07 30.0003 	-6.45901e-06 	-9.58399e-07 30.0003 	-6.45901e-06 	-9.58399e-07 30.0003 	-6.45901e-06 	-9.58398e-07 30.0001 	-3.50087e-06 	-1.30163e-06 30.0003 	-6.4661e-06 	-9.71694e-07 30.0003 	-6.46609e-06 	-9.71694e-07 30.0003 	-6.46609e-06 	-9.71694e-07 30.0003 	-6.46609e-06 	-9.71693e-07 30