# vtk DataFile Version 2.0
track0
ASCII
DATASET POLYDATA
POINTS 15780 float
-1.001 -0.05 0.0011
-1.0008 -0.05 0.0011
-1.0006 -0.05 0.0011
-1.0004 -0.05 0.0011
-1.0002 -0.05 0.0011
-1 -0.05 0.0011
-0.9875 -0.05 0.0011
-0.975 -0.05 0.0011
-0.9625 -0.05 0.0011
-0.95 -0.05 0.0011
-0.9375 -0.05 0.00109999
-0.925 -0.05 0.00109999
-0.9125 -0.05 0.00109999
-0.9 -0.05 0.00109999
-0.8875 -0.05 0.00109999
-0.875 -0.05 0.00109999
-0.8625 -0.05 0.00109999
-0.85 -0.05 0.00109999
-0.8375 -0.05 0.00109998
-0.825 -0.0500001 0.00109998
-0.8125 -0.0500001 0.00109998
-0.8 -0.0500001 0.00109998
-0.7875 -0.0500001 0.00109998
-0.775 -0.0500001 0.00109998
-0.7625 -0.0500001 0.00109998
-0.75 -0.0500001 0.00109998
-0.7375 -0.0500001 0.00109997
-0.725 -0.0500001 0.00109997
-0.7125 -0.0500001 0.00109997
-0.7 -0.0500001 0.00109997
-0.6875 -0.0500001 0.00109997
-0.675 -0.0500001 0.00109997
-0.6625 -0.0500001 0.00109997
-0.65 -0.0500001 0.00109996
-0.6375 -0.0500001 0.00109996
-0.625 -0.0500001 0.00109996
-0.6125 -0.0500001 0.00109996
-0.6 -0.0500001 0.00109996
-0.5875 -0.0500001 0.00109996
-0.575 -0.0500001 0.00109996
-0.5625 -0.0500001 0.00109996
-0.55 -0.0500001 0.00109995
-0.5375 -0.0500001 0.00109995
-0.525 -0.0500001 0.00109995
-0.5125 -0.0500001 0.00109995
-0.5 -0.0500001 0.00109995
-0.4875 -0.0500001 0.00109995
-0.475 -0.0500001 0.00109995
-0.4625 -0.0500001 0.00109994
-0.45 -0.0500002 0.00109994
-0.4375 -0.0500002 0.00109994
-0.425 -0.0500002 0.00109994
-0.4125 -0.0500002 0.00109994
-0.4 -0.0500002 0.00109994
-0.3875 -0.0500002 0.00109994
-0.375 -0.0500002 0.00109994
-0.3625 -0.0500002 0.00109993
-0.35 -0.0500002 0.00109993
-0.3375 -0.0500002 0.00109993
-0.325 -0.0500002 0.00109993
-0.3125 -0.0500002 0.00109993
-0.3 -0.0500002 0.00109993
-0.2875 -0.0500002 0.00109993
-0.275 -0.0500002 0.00109993
-0.2625 -0.0500002 0.00109992
-0.25 -0.0500002 0.00109992
-0.2375 -0.0500002 0.00109992
-0.225 -0.0500002 0.00109992
-0.2125 -0.0500002 0.00109992
-0.2 -0.0500002 0.00109992
-0.1875 -0.0500002 0.00109992
-0.175 -0.0500002 0.00109992
-0.1625 -0.0500002 0.00109991
-0.15 -0.0500002 0.00109991
-0.1375 -0.0500002 0.00109991
-0.125 -0.0500002 0.00109991
-0.1125 -0.0500002 0.00109991
-0.1 -0.0500002 0.00109991
-0.0875 -0.0500002 0.00109991
-0.075 -0.0500002 0.00109991
-0.0625 -0.0500002 0.00109991
-0.05 -0.0500003 0.00109991
-0.0375 -0.0500003 0.0010999
-0.025 -0.0500003 0.0010999
-0.0125 -0.0500003 0.0010999
2.10607e-13 -0.0500003 0.0010999
0.0125 -0.0500003 0.0010999
0.025 -0.0500003 0.0010999
0.0375 -0.0500003 0.0010999
0.05 -0.0500003 0.0010999
0.0625 -0.0500003 0.0010999
0.075 -0.0500003 0.0010999
0.0875 -0.0500003 0.0010999
0.1 -0.0500003 0.00109989
0.1125 -0.0500003 0.00109989
0.125 -0.0500003 0.00109989
0.1375 -0.0500003 0.00109989
0.15 -0.0500003 0.00109989
0.1625 -0.0500003 0.00109989
0.175 -0.0500003 0.00109989
0.1875 -0.0500003 0.00109989
0.2 -0.0500003 0.00109989
0.2125 -0.0500003 0.00109989
0.225 -0.0500003 0.00109989
0.2375 -0.0500003 0.00109989
0.25 -0.0500003 0.00109989
0.2625 -0.0500003 0.00109988
0.275 -0.0500003 0.00109988
0.2875 -0.0500003 0.00109988
0.3 -0.0500003 0.00109988
0.3125 -0.0500003 0.00109988
0.325 -0.0500003 0.00109988
0.3375 -0.0500003 0.00109988
0.35 -0.0500003 0.00109988
0.3625 -0.0500003 0.00109988
0.375 -0.0500003 0.00109988
0.3875 -0.0500003 0.00109988
0.4 -0.0500004 0.00109988
0.4125 -0.0500004 0.00109988
0.425 -0.0500004 0.00109988
0.4375 -0.0500004 0.00109988
0.45 -0.0500004 0.00109988
0.4625 -0.0500004 0.00109988
0.475 -0.0500004 0.00109988
0.4875 -0.0500004 0.00109988
0.5 -0.0500004 0.00109988
0.5125 -0.0500004 0.00109988
0.525 -0.0500004 0.00109988
0.5375 -0.0500004 0.00109988
0.55 -0.0500004 0.00109988
0.5625 -0.0500004 0.00109988
0.575 -0.0500004 0.00109987
0.5875 -0.0500004 0.00109987
0.6 -0.0500004 0.00109987
0.6125 -0.0500004 0.00109987
0.625 -0.0500004 0.00109987
0.6375 -0.0500004 0.00109987
0.65 -0.0500004 0.00109987
0.6625 -0.0500004 0.00109987
0.675 -0.0500004 0.00109987
0.6875 -0.0500004 0.00109987
0.7 -0.0500004 0.00109987
0.7125 -0.0500004 0.00109987
0.725 -0.0500004 0.00109987
0.7375 -0.0500004 0.00109987
0.75 -0.0500004 0.00109987
0.7625 -0.0500004 0.00109987
0.775 -0.0500004 0.00109987
0.7875 -0.0500004 0.00109987
0.8 -0.0500004 0.00109987
0.8125 -0.0500004 0.00109987
0.825 -0.0500004 0.00109987
0.8375 -0.0500004 0.00109987
0.85 -0.0500004 0.00109987
0.8625 -0.0500004 0.00109987
0.875 -0.0500004 0.00109987
0.8875 -0.0500004 0.00109987
0.9 -0.0500004 0.00109987
0.9125 -0.0500005 0.00109988
0.925 -0.0500005 0.00109988
0.9375 -0.0500005 0.00109988
0.95 -0.0500005 0.00109988
0.9625 -0.0500005 0.00109988
0.975 -0.0500005 0.00109988
0.9875 -0.0500005 0.00109988
1 -0.0500005 0.00109988
1.0125 -0.0500005 0.00109988
1.025 -0.0500005 0.00109988
1.0375 -0.0500005 0.00109988
1.05 -0.0500005 0.00109988
1.0625 -0.0500005 0.00109988
1.075 -0.0500005 0.00109988
1.0875 -0.0500005 0.00109988
1.1 -0.0500005 0.00109988
1.1125 -0.0500005 0.00109988
1.125 -0.0500005 0.00109988
1.1375 -0.0500005 0.00109988
1.15 -0.0500005 0.00109988
1.1625 -0.0500005 0.00109988
1.175 -0.0500005 0.00109988
1.1875 -0.0500005 0.00109988
1.2 -0.0500005 0.00109988
1.2125 -0.0500005 0.00109988
1.225 -0.0500005 0.00109988
1.2375 -0.0500005 0.00109989
1.25 -0.0500005 0.00109989
1.2625 -0.0500005 0.00109989
1.275 -0.0500005 0.00109989
1.2875 -0.0500005 0.00109989
1.3 -0.0500005 0.00109989
1.3125 -0.0500005 0.00109989
1.325 -0.0500005 0.00109989
1.3375 -0.0500005 0.00109989
1.35 -0.0500005 0.00109989
1.3625 -0.0500005 0.00109989
1.375 -0.0500005 0.00109989
1.3875 -0.0500005 0.00109989
1.4 -0.0500005 0.00109989
1.4125 -0.0500005 0.00109989
1.425 -0.0500005 0.00109989
1.4375 -0.0500005 0.0010999
1.45 -0.0500005 0.0010999
1.4625 -0.0500005 0.0010999
1.475 -0.0500005 0.0010999
1.4875 -0.0500005 0.0010999
1.5 -0.0500006 0.0010999
1.5125 -0.0500006 0.0010999
1.525 -0.0500006 0.0010999
1.5375 -0.0500006 0.0010999
1.55 -0.0500006 0.0010999
1.5625 -0.0500006 0.0010999
1.575 -0.0500006 0.0010999
1.5875 -0.0500006 0.0010999
1.6 -0.0500006 0.0010999
1.6125 -0.0500006 0.00109991
1.625 -0.0500006 0.00109991
1.6375 -0.0500006 0.00109991
1.65 -0.0500006 0.00109991
1.6625 -0.0500006 0.00109991
1.675 -0.0500006 0.00109991
1.6875 -0.0500006 0.00109991
1.7 -0.0500006 0.00109991
1.7125 -0.0500006 0.00109991
1.725 -0.0500006 0.00109991
1.7375 -0.0500006 0.00109991
1.75 -0.0500006 0.00109991
1.7625 -0.0500006 0.00109992
1.775 -0.0500006 0.00109992
1.7875 -0.0500006 0.00109992
1.8 -0.0500006 0.00109992
1.8125 -0.0500006 0.00109992
1.825 -0.0500006 0.00109992
1.8375 -0.0500006 0.00109992
1.85 -0.0500006 0.00109992
1.8625 -0.0500006 0.00109992
1.875 -0.0500006 0.00109992
1.8875 -0.0500006 0.00109992
1.9 -0.0500006 0.00109992
1.9125 -0.0500006 0.00109993
1.925 -0.0500006 0.00109993
1.9375 -0.0500006 0.00109993
1.95 -0.0500006 0.00109993
1.9625 -0.0500006 0.00109993
1.975 -0.0500006 0.00109993
1.9875 -0.0500006 0.00109993
2 -0.0500006 0.00109993
2.0125 -0.0500006 0.00109993
2.025 -0.0500006 0.00109993
2.0375 -0.0500006 0.00109993
2.05 -0.0500006 0.00109993
2.0625 -0.0500006 0.00109993
2.075 -0.0500006 0.00109994
2.0875 -0.0500006 0.00109994
2.1 -0.0500006 0.00109994
2.1125 -0.0500006 0.00109994
2.125 -0.0500006 0.00109994
2.1375 -0.0500006 0.00109994
2.15 -0.0500006 0.00109994
2.1625 -0.0500006 0.00109994
2.175 -0.0500007 0.00109994
2.1875 -0.0500007 0.00109994
2.2 -0.0500007 0.00109994
2.2125 -0.0500007 0.00109994
2.225 -0.0500007 0.00109995
2.2375 -0.0500007 0.00109995
2.25 -0.0500007 0.00109995
2.2625 -0.0500007 0.00109995
2.275 -0.0500007 0.00109995
2.2875 -0.0500007 0.00109995
2.3 -0.0500007 0.00109995
2.3125 -0.0500007 0.00109995
2.325 -0.0500007 0.00109995
2.3375 -0.0500007 0.00109995
2.35 -0.0500007 0.00109995
2.3625 -0.0500007 0.00109995
2.375 -0.0500007 0.00109995
2.3875 -0.0500007 0.00109996
2.4 -0.0500007 0.00109996
2.4125 -0.0500007 0.00109996
2.425 -0.0500007 0.00109996
2.4375 -0.0500007 0.00109996
2.45 -0.0500007 0.00109996
2.4625 -0.0500007 0.00109996
2.475 -0.0500007 0.00109996
2.4875 -0.0500007 0.00109996
2.5 -0.0500007 0.00109996
2.5125 -0.0500007 0.00109996
2.525 -0.0500007 0.00109996
2.5375 -0.0500007 0.00109996
2.55 -0.0500007 0.00109996
2.5625 -0.0500007 0.00109997
2.575 -0.0500007 0.00109997
2.5875 -0.0500007 0.00109997
2.6 -0.0500007 0.00109997
2.6125 -0.0500007 0.00109997
2.625 -0.0500007 0.00109997
2.6375 -0.0500007 0.00109997
2.65 -0.0500007 0.00109997
2.6625 -0.0500007 0.00109997
2.675 -0.0500007 0.00109997
2.6875 -0.0500007 0.00109997
2.7 -0.0500007 0.00109997
2.7125 -0.0500007 0.00109997
2.725 -0.0500007 0.00109997
2.7375 -0.0500007 0.00109997
2.75 -0.0500007 0.00109997
2.7625 -0.0500007 0.00109998
2.775 -0.0500007 0.00109998
2.7875 -0.0500007 0.00109998
2.8 -0.0500007 0.00109998
2.8125 -0.0500007 0.00109998
2.825 -0.0500007 0.00109998
2.8375 -0.0500007 0.00109998
2.85 -0.0500007 0.00109998
2.8625 -0.0500008 0.00109998
2.875 -0.0500008 0.00109998
2.8875 -0.0500008 0.00109998
2.9 -0.0500008 0.00109998
2.9125 -0.0500008 0.00109998
2.925 -0.0500008 0.00109998
2.9375 -0.0500008 0.00109998
2.95 -0.0500008 0.00109998
2.9625 -0.0500008 0.00109998
2.975 -0.0500008 0.00109998
2.9875 -0.0500008 0.00109998
3 -0.0500008 0.00109998
3.0125 -0.0500008 0.00109999
3.025 -0.0500008 0.00109999
3.0375 -0.0500008 0.00109999
3.05 -0.0500008 0.00109999
3.0625 -0.0500008 0.00109999
3.075 -0.0500008 0.00109999
3.0875 -0.0500008 0.00109999
3.1 -0.0500008 0.00109999
3.1125 -0.0500008 0.00109999
3.125 -0.0500008 0.00109999
3.1375 -0.0500008 0.00109999
3.15 -0.0500008 0.00109999
3.1625 -0.0500008 0.00109999
3.175 -0.0500008 0.00109999
3.1875 -0.0500008 0.00109999
3.2 -0.0500008 0.00109999
3.2125 -0.0500008 0.00109999
3.225 -0.0500008 0.00109999
3.2375 -0.0500008 0.00109999
3.25 -0.0500008 0.00109999
3.2625 -0.0500008 0.00109999
3.275 -0.0500008 0.00109999
3.2875 -0.0500008 0.00109999
3.3 -0.0500008 0.00109999
3.3125 -0.0500008 0.00109999
3.325 -0.0500008 0.00109999
3.3375 -0.0500008 0.00109999
3.35 -0.0500008 0.0011
3.3625 -0.0500008 0.0011
[...]
POINT_DATA 15780
 FIELD attributes 2
p 1 15780 float
-0.0310976 -0.0311137 -0.0311297 -0.0311457 -0.0311618 -0.0311778 -0.0321093 -0.033033 -0.0339568 -0.0348805 -0.0359009 -0.0369648 -0.0380311 -0.0390975 -0.0401638 -0.0411835 -0.042167 -0.0431318 -0.0440966 -0.0450614 -0.0459745 -0.0468723 -0.0477749 -0.0486774 -0.04958 -0.0504767 -0.0513773 -0.0522788 -0.0531803 -0.0540818 -0.0549826 -0.0558901 -0.0567981 -0.057706 -0.058614 -0.0595214 -0.060421 -0.0613185 -0.062216 -0.0631135 -0.0640081 -0.0648871 -0.0657643 -0.0666414 -0.0675186 -0.0683936 -0.069251 -0.0701063 -0.0709616 -0.0718169 -0.0726703 -0.0735049 -0.074337 -0.075169 -0.076001 -0.0768308 -0.077639 -0.0784442 -0.0792493 -0.0800545 -0.0808568 -0.0816349 -0.0824092 -0.0831835 -0.0839577 -0.0847284 -0.0854725 -0.0862125 -0.0869524 -0.0876924 -0.0884284 -0.0891358 -0.0898383 -0.0905409 -0.0912434 -0.0919414 -0.0926087 -0.0932708 -0.093933 -0.0945952 -0.0952523 -0.0958768 -0.0964956 -0.0971145 -0.0977333 -0.0983466 -0.0989256 -0.0994988 -0.100072 -0.100645 -0.101212 -0.101745 -0.102271 -0.102797 -0.103324 -0.103844 -0.104328 -0.104806 -0.105284 -0.105761 -0.106233 -0.106667 -0.107094 -0.10752 -0.107947 -0.108366 -0.108747 -0.10912 -0.109492 -0.109865 -0.11023 -0.110555 -0.110872 -0.111189 -0.111506 -0.111815 -0.112084 -0.112344 -0.112604 -0.112864 -0.113116 -0.113327 -0.11353 -0.113732 -0.113935 -0.11413 -0.114282 -0.114426 -0.11457 -0.114714 -0.11485 -0.114943 -0.115028 -0.115114 -0.115199 -0.115277 -0.115313 -0.115342 -0.11537 -0.115399 -0.11542 -0.115402 -0.115377 -0.115352 -0.115326 -0.115293 -0.115223 -0.115145 -0.115067 -0.11499 -0.114905 -0.114782 -0.114653 -0.114523 -0.114393 -0.114257 -0.114083 -0.113901 -0.11372 -0.113539 -0.113351 -0.113127 -0.112897 -0.112666 -0.112435 -0.112198 -0.111928 -0.111651 -0.111374 -0.111097 -0.110814 -0.110499 -0.110179 -0.109858 -0.109537 -0.10921 -0.108854 -0.108491 -0.108129 -0.107766 -0.107397 -0.107001 -0.106599 -0.106197 -0.105795 -0.105387 -0.104954 -0.104516 -0.104077 -0.103639 -0.103195 -0.102729 -0.102258 -0.101788 -0.101317 -0.100843 -0.100348 -0.0998503 -0.0993522 -0.0988541 -0.0983519 -0.0978331 -0.0973107 -0.0967882 -0.0962658 -0.0957395 -0.0951986 -0.0946542 -0.0941098 -0.0935654 -0.0930174 -0.0924564 -0.0918926 -0.0913289 -0.0907651 -0.0901981 -0.0896205 -0.0890403 -0.0884601 -0.0878799 -0.0872968 -0.0867053 -0.086112 -0.0855186 -0.0849252 -0.0843295 -0.0837277 -0.0831241 -0.0825206 -0.0819171 -0.0813115 -0.0807018 -0.080091 -0.0794802 -0.0788694 -0.0782571 -0.0776427 -0.0770273 -0.0764119 -0.0757965 -0.0751798 -0.0745628 -0.0739454 -0.073328 -0.0727106 -0.0720925 -0.0714757 -0.0708587 -0.0702417 -0.0696247 -0.0690072 -0.0683926 -0.0677783 -0.067164 -0.0665496 -0.0659352 -0.0653252 -0.0647155 -0.0641058 -0.0634961 -0.0628865 -0.0622825 -0.0616793 -0.0610761 -0.0604729 -0.0598702 -0.0592743 -0.0586793 -0.0580843 -0.0574893 -0.0568949 -0.0563084 -0.0557231 -0.0551379 -0.0545526 -0.0539684 -0.0533929 -0.0528188 -0.0522447 -0.0516706 -0.0510975 -0.0505342 -0.0499724 -0.0494106 -0.0488489 -0.0482885 -0.0477385 -0.0471901 -0.0466418 -0.0460934 -0.0455466 -0.0450106 -0.0444766 -0.0439425 -0.0434085 -0.0428762 -0.0423553 -0.0418364 -0.0413175 -0.0407985 -0.0402814 -0.0397761 -0.0392728 -0.0387696 -0.0382664 -0.0377652 -0.0372761 -0.0367892 -0.0363022 -0.0358152 -0.0353303 -0.0348577 -0.0343873 -0.033917 -0.0334466 -0.0329784 -0.0325227 -0.0320692 -0.0316158 -0.0311623 -0.030711 -0.0302722 -0.0298358 -0.0293994 -0.028963 -0.0285289 -0.0281072 -0.0276879 -0.0272685 -0.0268492 -0.0264322 -0.0260276 -0.0256254 -0.0252231 -0.0248209 -0.0244211 -0.0240335 -0.0236484 -0.0232633 -0.0228782 -0.0224955 -0.0221251 -0.0217572 -0.0213893 -0.0210215 -0.020656 -0.0203028 -0.0199521 -0.0196013 -0.0192506 -0.0189022 -0.0185655 -0.0182315 -0.0178975 -0.0175635 -0.0172319 -0.0169116 -0.0165937 -0.0162758 -0.0159579 -0.0156424 -0.0153378 -0.0150355 -0.0147332 -0.0144309 -0.0141311 -0.0138417 -0.0135547 -0.0132676 -0.0129806 -0.0126961 -0.0124218 -0.0121497 -0.0118776 -0.0116055 -0.0113357 -0.011076 -0.0108185 -0.0105611 -0.0103036 -0.0100484 -0.00980314 -0.00955999 -0.00931683 -0.00907368 -0.00883272 -0.00860125 -0.00837182 -0.00814239 -0.00791295 -0.00768561 -0.00746725 -0.007251 -0.00703476 -0.00681851 -0.00660434 -0.00639882 -0.00619532 -0.00599183 -0.00578833 -0.00558683 -0.00539361 -0.0052025 -0.00501139 -0.00482027 -0.00463126 -0.00445022 -0.00427129 -0.00409236 -0.00391342 -0.00373654 -0.0035673 -0.00340013 -0.00323295 -0.00306577 -0.00290063 -0.00274258 -0.00258641 -0.00243023 -0.00227406 -0.00211992 -0.00197241 -0.00182643 -0.00168045 -0.00153447 -0.00139027 -0.00125231 -0.00111595 -0.000979592 -0.000843234 -0.00070865 -0.000579976 -0.000452912 -0.000325847 -0.000198783 -7.33639e-05 4.63033e-05 0.000164355 0.000282407 0.000400458 0.000516892 0.000627877 0.000737278 0.000846678 0.000956078 0.00106386 0.00116659 0.00126778 0.00136897 0.00147016 0.00156976 0.00166465 0.00175808 0.00185152 0.00194495 0.00203687 0.00212441 0.00221051 0.00229662 0.00238272 0.00246735 0.00254785 0.00262703 0.0027062 0.00278537 0.00286315 0.00293708 0.00300971 0.00308233 0.00315495 0.00322619 0.00329388 0.00336033 0.00342678 0.00349323 0.00355839 0.00362024 0.00368088 0.00374151 0.00380215 0.0038615 0.00391782 0.003973 0.00402818 0.00408336 0.00413733 0.00418852 0.00423858 0.00428864 0.00433869 0.00438755 0.00443385 0.00447909 0.00452432 0.00456955 0.00461365 0.00465542 0.00469613 0.00473683 0.00477754 0.00481713 0.00485458 0.00489105 0.00492751 0.00496398 0.0049994 0.00503289 0.0050654 0.00509791 0.00513042 0.00516188 0.00519162 0.00522043 0.00524925 0.00527806 0.0053059 0.00533218 0.00535754 0.00538291 0.00540827 0.00543268 0.00545568 0.00547784 0.00549999 0.00552215 0.0055434 0.00556344 0.00558262 0.00560181 0.005621 0.00563928 0.0056565 0.00567294 0.00568937 0.0057058 0.0057214 0.00573607 0.00574996 0.00576385 0.00577774 0.0057908 0.00580306 0.0058146 0.00582614 0.00583768 0.00584845 0.00585855 0.00586793 0.00587731 0.00588668 0.00589528 0.00590335 0.00591075 0.00591814 0.00592553 0.0059322 0.00593845 0.00594402 0.00594959 0.00595516 0.00596002 0.00596456 0.00596848 0.00597239 0.00597631 0.00597955 0.0059826 0.00598501 0.00598742 0.00598983 0.00599156 0.0059932 0.00599424 0.00599528 0.00599632 0.00599674 0.00599713 0.00599693 0.00599673 0.00599654 0.00599571 0.00599495 0.00599364 0.00599233 0.00599102 0.00598913 0.0059874 0.00598511 0.00598281 0.00598052 0.00597765 0.005975 0.00597183 0.00596866 0.00596549 0.00596177 0.00595834 0.0059544 0.00595045 0.00594651 0.00594202 0.00593789 0.00593328 0.00592867 0.00592406 0.00591893 0.00591424 0.00590907 0.00590389 0.00589872 0.00589303 0.00588784 0.00588219 0.00587655 0.0058709 0.00586476 0.00585919 0.00585316 0.00584713 0.0058411 0.00583459 0.00582869 0.00582236 0.00581603 0.0058097 0.00580291 0.0057968 0.00579025 0.0057837 0.00577715 0.00577014 0.00576387 0.00575718 0.00575049 0.0057438 0.00573667 0.00573033 0.00572357 0.00571682 0.00571006 0.00570287 0.00569652 0.00568977 0.00568301 0.00567626 0.00566909 0.00566281 0.00565613 0.00564945 0.00564276 0.00563567 0.00562952 0.00562298 0.00561643 0.00560989 0.00560294 0.00559699 0.00559064 0.00558429 0.00557795 0.00557121 0.00556551 0.00555942 0.00555333 0.00554725 0.00554077 0.00553538 0.0055296 0.00552383 0.00551805 0.0055119 0.00550687 0.00550146 0.00549604 0.00549063 0.00548484 0.0054802 0.00547519 0.00547017 0.00546516 0.00545978 0.00545558 0.00545099 0.0054464 0.00544181 0.00543685 0.00543307 0.00542889 0.00542472 0.00542055 0.00541602 0.00541262 0.00540881 0.00540499 0.00540118 0.00539697 0.00539377 0.00539012 0.00538648 0.00538283 0.00537877 0.00537535 0.00537143 0.00536752 0.0053636 0.00535919 0.00535428 0.00534855 0.00534283 0.0053371 0.00533058 0.0053218 0.00531259 0.00530338 0.00529417 0.00528446 0.00525833 0.00522668 0.00519502 0.00516337 0.00512683 0.00511534 0.00511799 0.00512064 0.00512329 0.0051489 0.0052325 0.00530853 0.00538789 0.00545085 0.00549646 0.00548942 0.00548559 0.00548175 0.00547793 0.0054764 0.00550327 0.00553094 0.00555862 0.00557828 0.00559923 0.00561316 0.005632 0.00565087 0.00566974 0.00568407 0.00574695 0.00581195 0.00587696 0.00594196 0.00599846 0.00608989 0.00616599 0.00624208 0.00631818 0.00632332 0.00630868 0.0062893 0.00626991 0.00625053 0.00624064 0.00603978 0.00581821 0.00559664 0.00537507 0.00504769 0.0045677 0.00407381 0.00357993 0.00308604 0.00262194 0.00235218 0.00207487 0.00179756 0.00152026 0.00127292 0.00117432 0.00106929 0.00096427 0.000859244 0.000773598 0.000667684 0.000556212 0.00044474 0.000333268 0.00025528
-0.031947 -0.0319661 -0.0319852 -0.0320043 -0.0320234 -0.0320425 -0.0327434 -0.033621 -0.0344037 -0.0351661 -0.0362244 -0.0372611 -0.0382514 -0.0392539 -0.0403133 -0.0412973 -0.0422585 -0.0432245 -0.0441651 -0.0451003 -0.0460062 -0.0469043 -0.0478104 -0.0487163 -0.0496215 -0.0505265 -0.0514182 -0.0523219 -0.0532306 -0.0541403 -0.0550607 -0.0559658 -0.056878 -0.0577898 -0.0586993 -0.0596143 -0.0605157 -0.061414 -0.0623136 -0.0632135 -0.0641096 -0.0649907 -0.0658707 -0.0667503 -0.0676279 -0.0685037 -0.0693619 -0.0702176 -0.0710758 -0.0719345 -0.0727911 -0.0736251 -0.0744605 -0.0752953 -0.0761277 -0.0769613 -0.0777686 -0.0785739 -0.0793817 -0.0801899 -0.0809967 -0.0817723 -0.0825495 -0.0833262 -0.0841006 -0.0848765 -0.0856173 -0.0863573 -0.0870996 -0.0878423 -0.0885847 -0.0892871 -0.0899923 -0.090697 -0.0913996 -0.092105 -0.0927663 -0.0934285 -0.0940927 -0.0947573 -0.0954231 -0.09604 -0.096661 -0.0972817 -0.0979005 -0.0985232 -0.0990923 -0.0996652 -0.10024 -0.100815 -0.101394 -0.101913 -0.102441 -0.102968 -0.103494 -0.104029 -0.104501 -0.104979 -0.105457 -0.105936 -0.10642 -0.106843 -0.10727 -0.107697 -0.108123 -0.108555 -0.108925 -0.109297 -0.10967 -0.110042 -0.110418 -0.110733 -0.111049 -0.111365 -0.111682 -0.112001 -0.11226 -0.11252 -0.11278 -0.113039 -0.113299 -0.113501 -0.113703 -0.113905 -0.114108 -0.11431 -0.114454 -0.114598 -0.114742 -0.114886 -0.115028 -0.115111 -0.115197 -0.115282 -0.115367 -0.115455 -0.115479 -0.115507 -0.115536 -0.115565 -0.115598 -0.115566 -0.11554 -0.115514 -0.115488 -0.115469 -0.115385 -0.115307 -0.115227 -0.115147 -0.115074 -0.114938 -0.114805 -0.114673 -0.114543 -0.114415 -0.114229 -0.114047 -0.113863 -0.113678 -0.113498 -0.113262 -0.113028 -0.112795 -0.112564 -0.112335 -0.112053 -0.111775 -0.111495 -0.111215 -0.110939 -0.110614 -0.110289 -0.109965 -0.109644 -0.109324 -0.108959 -0.108596 -0.108231 -0.107865 -0.107502 -0.107099 -0.106694 -0.106291 -0.105889 -0.105486 -0.105045 -0.104606 -0.104167 -0.103726 -0.103288 -0.102811 -0.102338 -0.101866 -0.101395 -0.100926 -0.100421 -0.0999225 -0.0994214 -0.0989197 -0.0984247 -0.0978956 -0.0973693 -0.0968437 -0.0963207 -0.0958005 -0.0952509 -0.0947061 -0.0941588 -0.0936108 -0.0930678 -0.0924993 -0.0919322 -0.0913656 -0.0908015 -0.0902384 -0.0896538 -0.0890733 -0.0884904 -0.0879071 -0.0873277 -0.0867299 -0.0861334 -0.0855375 -0.0849438 -0.0843511 -0.0837434 -0.0831396 -0.0825336 -0.0819272 -0.0813244 -0.0807096 -0.080096 -0.0794829 -0.0788718 -0.0782617 -0.0776425 -0.0770269 -0.0764093 -0.0757913 -0.0751766 -0.0745556 -0.0739358 -0.0733163 -0.0726987 -0.0720819 -0.0714616 -0.0708443 -0.0702255 -0.0696063 -0.0689901 -0.0683726 -0.0677563 -0.0671403 -0.0665258 -0.0659122 -0.0652996 -0.0646897 -0.0640785 -0.063467 -0.0628581 -0.0622521 -0.0616472 -0.0610426 -0.0604393 -0.0598368 -0.0592392 -0.058644 -0.0580478 -0.0574513 -0.0568571 -0.0562693 -0.0556827 -0.0550964 -0.054511 -0.0539266 -0.0533502 -0.052776 -0.0522009 -0.0516256 -0.0510523 -0.0504884 -0.0499257 -0.049363 -0.0488012 -0.0482403 -0.04769 -0.0471416 -0.0465925 -0.0460433 -0.0454958 -0.04496 -0.0444252 -0.0438906 -0.0433565 -0.0428234 -0.0423028 -0.0417839 -0.0412644 -0.0407449 -0.0402269 -0.0397222 -0.0392185 -0.038715 -0.0382117 -0.0377094 -0.0372211 -0.0367342 -0.0362469 -0.0357596 -0.0352736 -0.034802 -0.0343314 -0.0338609 -0.0333906 -0.0329211 -0.0324666 -0.0320131 -0.0315596 -0.031106 -0.0306534 -0.030216 -0.0297796 -0.0293432 -0.0289068 -0.0284713 -0.0280511 -0.0276319 -0.0272126 -0.0267934 -0.0263751 -0.025972 -0.02557 -0.0251679 -0.0247657 -0.0243644 -0.0239785 -0.0235934 -0.0232084 -0.0228235 -0.0224395 -0.0220705 -0.0217028 -0.0213352 -0.0209673 -0.0206007 -0.0202487 -0.0198981 -0.0195476 -0.0191971 -0.0188478 -0.0185124 -0.0181784 -0.0178445 -0.0175106 -0.0171779 -0.0168593 -0.0165415 -0.0162238 -0.0159061 -0.0155893 -0.0152869 -0.0149849 -0.0146829 -0.0143807 -0.014079 -0.0137925 -0.0135055 -0.0132188 -0.0129322 -0.0126453 -0.0123739 -0.0121023 -0.0118306 -0.0115585 -0.0112863 -0.0110293 -0.0107718 -0.0105148 -0.0102578 -0.0100003 -0.00975754 -0.00951484 -0.00927207 -0.00902896 -0.00878605 -0.00855706 -0.00832772 -0.00809877 -0.00786992 -0.00764057 -0.00742489 -0.00720937 -0.00699374 -0.00677762 -0.00656175 -0.00635866 -0.00615528 -0.00595241 -0.00574966 -0.00554663 -0.00535564 -0.00516528 -0.00497479 -0.00478376 -0.00459328 -0.00441413 -0.00423526 -0.00405678 -0.00387839 -0.00370037 -0.00353237 -0.00336542 -0.00319844 -0.0030313 -0.00286497 -0.00270835 -0.00255224 -0.00239624 -0.00224026 -0.00208493 -0.00193923 -0.00179365 -0.00164802 -0.00150216 -0.00135659 -0.00122118 -0.00108495 -0.000949108 -0.000813349 -0.000676829 -0.000550864 -0.000424464 -0.000297964 -0.000171011 -4.37711e-05 7.34997e-05 0.000191466 0.000308993 0.000426422 0.000544588 0.000653404 0.000762257 0.000871196 0.000980528 0.00108987 0.00119059 0.00129171 0.00139249 0.00149318 0.00159425 0.00168725 0.00178021 0.00187325 0.00196662 0.00205992 0.00214558 0.00223161 0.00231733 0.00240298 0.00248895 0.00256769 0.0026464 0.00272518 0.00280428 0.00288333 0.00295549 0.00302805 0.00310028 0.00317244 0.00324492 0.00331099 0.00337699 0.00344307 0.00350947 0.00357578 0.00363602 0.0036966 0.0037569 0.00381714 0.00387765 0.00393245 0.00398728 0.00404216 0.00409729 0.00415242 0.00420204 0.00425204 0.0043018 0.0043515 0.00440153 0.00444631 0.00449119 0.00453612 0.0045813 0.00462655 0.00466676 0.00470741 0.00474782 0.00478818 0.0048289 0.0048649 0.00490103 0.00493721 0.00497363 0.00501017 0.00504217 0.00507463 0.00510687 0.00513906 0.00517163 0.00519996 0.00522846 0.00525702 0.00528578 0.00531471 0.00533956 0.00536489 0.00539001 0.00541508 0.00544056 0.00546223 0.00548411 0.00550603 0.00552815 0.00555047 0.00556913 0.00558828 0.00560724 0.00562616 0.0056455 0.00566143 0.0056776 0.00569382 0.00571022 0.00572684 0.0057402 0.00575405 0.00576773 0.00578137 0.00579545 0.00580648 0.00581778 0.00582913 0.00584063 0.0058524 0.00586123 0.00587057 0.00587976 0.00588892 0.00589853 0.00590539 0.00591257 0.00591978 0.00592714 0.0059348 0.00593981 0.00594535 0.00595076 0.00595613 0.00596198 0.00596535 0.00596908 0.00597283 0.00597672 0.00598095 0.00598278 0.00598517 0.00598743 0.00598966 0.00599238 0.00599287 0.00599374 0.00599464 0.00599565 0.00599704 0.00599626 0.00599603 0.00599569 0.00599533 0.00599548 0.00599359 0.00599213 0.0059907 0.00598937 0.00598846 0.00598559 0.00598328 0.00598086 0.00597842 0.0059765 0.00597277 0.00596945 0.00596616 0.00596297 0.00596019 0.00595567 0.0059517 0.00594765 0.00594357 0.00594 0.00593484 0.0059301 0.00592539 0.00592076 0.00591656 0.00591081 0.00590561 0.00590034 0.00589505 0.00589029 0.00588408 0.00587832 0.00587258 0.00586692 0.00586171 0.0058551 0.00584905 0.00584293 0.0058368 0.0058312 0.0058243 0.00581788 0.00581147 0.00580512 0.00579925 0.00579211 0.00578555 0.00577893 0.00577229 0.0057662 0.00575894 0.00575216 0.00574541 0.0057387 0.0057325 0.00572514 0.00571837 0.00571155 0.00570472 0.00569845 0.00569112 0.0056843 0.00567749 0.00567072 0.00566448 0.0056572 0.00565051 0.00564377 0.00563703 0.00563086 0.00562373 0.00561713 0.00561054 0.00560399 0.00559798 0.00559103 0.00558467 0.00557829 0.0055719 0.00556608 0.00555941 0.00555329 0.00554717 0.00554107 0.00553554 0.00552916 0.00552338 0.00551758 0.00551178 0.00550657 0.00550057 0.00549514 0.00548972 0.0054843 0.00547948 0.00547386 0.00546884 0.00546384 0.00545883 0.00545442 0.00544925 0.0054447 0.00544015 0.00543556 0.00543163 0.00542686 0.0054227 0.00541861 0.00541454 0.00541108 0.00540671 0.00540311 0.00539948 0.00539569 0.0053927 0.00538853 0.00538494 0.00538171 0.00537855 0.00537599 0.00537166 0.00536884 0.00536584 0.00536205 0.00535978 0.00535444 0.00534919 0.00534619 0.00534373 0.00534129 0.00533224 0.0053305 0.00532758 0.00531963 0.00531858 0.00530426 0.00527969 0.00527517 0.00527539 0.00526464 0.00522174 0.00523331 0.00524367 0.00524894 0.00531705 0.0054105 0.00547405 0.00553762 0.00557558 0.00552927 0.00551004 0.005503 0.00549595 0.00548845 0.00549244 0.00550997 0.00552813 0.00554629 0.00555798 0.00556923 0.00557029 0.00557134 0.00557239 0.00557332 0.00557401 0.00559884 0.00562778 0.00565681 0.00568584 0.00565922 0.00569736 0.00576 0.00582301 0.00588602 0.005966 0.00618027 0.00626927 0.00635172 0.00642782 0.00632089 0.00635675 0.00633736 0.00632091 0.00631144 0.00625606 0.00620951 0.00598794 0.00576637 0.00553223 0.00503862 0.004699 0.00420511 0.00371123 0.00321466 0.00259586 0.00241423 0.00213692 0.00185962 0.00158231 0.00124251 0.00122341 0.00111839 0.00101336 0.000908339 0.000751166 0.000715172 0.000603702 0.000492232 0.000380762 0.000206758