# vtk DataFile Version 2.0
track0
ASCII
DATASET POLYDATA
POINTS 20642 float
-1.001 -0.05 0.0011
-1.00079 -0.05 0.0011
-1.00058 -0.0500001 0.0011
-1.00038 -0.0500001 0.0011
-1.00017 -0.0500002 0.00110001
-0.999962 -0.0500002 0.00110001
-0.98746 -0.0500028 0.00110016
-0.974958 -0.0500076 0.00109999
-0.962456 -0.0500124 0.00109981
-0.949954 -0.0500172 0.00109964
-0.937452 -0.050022 0.00109946
-0.924948 -0.0500224 0.00109968
-0.912445 -0.0500277 0.00109976
-0.899941 -0.050033 0.00109983
-0.887437 -0.0500383 0.00109991
-0.874933 -0.0500436 0.00109998
-0.862428 -0.0500441 0.0011003
-0.849922 -0.0500501 0.00110054
-0.837416 -0.0500561 0.00110077
-0.82491 -0.0500622 0.00110101
-0.812404 -0.0500682 0.00110125
-0.799896 -0.0500724 0.00110156
-0.787388 -0.0500794 0.00110186
-0.774879 -0.0500864 0.00110215
-0.762371 -0.0500934 0.00110245
-0.749862 -0.0501004 0.00110275
-0.737351 -0.0501057 0.00110301
-0.724839 -0.0501141 0.00110329
-0.712327 -0.0501226 0.00110358
-0.699816 -0.0501311 0.00110386
-0.687304 -0.0501396 0.00110415
-0.674789 -0.0501406 0.00110434
-0.662273 -0.0501512 0.00110453
-0.649757 -0.0501618 0.00110472
-0.637242 -0.0501724 0.00110491
-0.624726 -0.050183 0.0011051
-0.612206 -0.0501917 0.00110501
-0.599685 -0.0502055 0.00110498
-0.587165 -0.0502194 0.00110495
-0.574644 -0.0502332 0.00110493
-0.562124 -0.050247 0.0011049
-0.549598 -0.0502589 0.00110434
-0.537072 -0.0502781 0.00110376
-0.524546 -0.0502974 0.00110319
-0.51202 -0.0503166 0.00110261
-0.499494 -0.0503358 0.00110204
-0.486962 -0.0503533 0.00110051
-0.47443 -0.050384 0.00109873
-0.461898 -0.0504146 0.00109694
-0.449366 -0.0504452 0.00109516
-0.436834 -0.0504757 0.00109338
-0.424293 -0.050481 0.00108871
-0.411752 -0.0505373 0.00108204
-0.399211 -0.0505931 0.00107542
-0.386669 -0.0506487 0.00106883
-0.374128 -0.0507038 0.00106228
-0.367853 -0.050726 0.00105709
-0.361578 -0.0507811 0.00105284
-0.355302 -0.0508361 0.0010486
-0.349027 -0.0508908 0.00104438
-0.342751 -0.0509453 0.00104018
-0.336478 -0.0509822 0.00103484
-0.330205 -0.0510555 0.00103034
-0.323932 -0.0511284 0.00102586
-0.317659 -0.0512011 0.00102141
-0.311385 -0.0512734 0.00101697
-0.305109 -0.0513236 0.00101068
-0.298833 -0.0514235 0.00100508
-0.292557 -0.0515228 0.0009995
-0.286282 -0.0516216 0.000993957
-0.280004 -0.0517198 0.000988443
-0.273728 -0.0517857 0.000980897
-0.267453 -0.0519286 0.000973456
-0.261178 -0.0520704 0.000966074
-0.254904 -0.0522111 0.000958749
-0.248625 -0.0523508 0.000951476
-0.242358 -0.0524418 0.000942178
-0.236096 -0.0526689 0.000931327
-0.229833 -0.0528933 0.000920606
-0.22357 -0.053115 0.000910012
-0.217295 -0.0533346 0.000899524
-0.211049 -0.0534728 0.000887791
-0.204812 -0.0538456 0.000873386
-0.198576 -0.0542122 0.000859224
-0.192338 -0.0545727 0.000845298
-0.186067 -0.054929 0.000831532
-0.182944 -0.0550389 0.000825734
-0.179828 -0.0552723 0.000820918
-0.176712 -0.0555043 0.000816131
-0.173595 -0.055735 0.000811372
-0.170452 -0.0559662 0.000806601
-0.167328 -0.0560845 0.000798547
-0.164212 -0.0563351 0.000795651
-0.161096 -0.0565847 0.000792765
-0.157979 -0.0568333 0.000789891
-0.154833 -0.0570835 0.000786999
-0.151687 -0.0572116 0.000784974
-0.14855 -0.0574924 0.000783658
-0.145413 -0.0577728 0.000782343
-0.142277 -0.0580528 0.000781031
-0.139104 -0.0583354 0.000779705
-0.135929 -0.0584761 0.000779715
-0.132767 -0.0587961 0.000780649
-0.129603 -0.0591032 0.000781706
-0.126438 -0.05939 0.000782955
-0.123238 -0.0596605 0.000784399
-0.120026 -0.05982 0.000786871
-0.116821 -0.0600895 0.000790967
-0.113614 -0.0603362 0.000795391
-0.110405 -0.0605619 0.000800124
-0.107188 -0.0607686 0.000805162
-0.107126 -0.0607722 0.000805264
-0.107063 -0.0607759 0.000805369
-0.107 -0.0607795 0.000805475
-0.106938 -0.0607832 0.000805582
-0.106877 -0.0607868 0.000805688
-0.103687 -0.0609742 0.000811292
-0.100501 -0.0612033 0.000819628
-0.0973154 -0.061447 0.000827585
-0.0941312 -0.0617058 0.000835123
-0.0909432 -0.0619802 0.000842229
-0.0876997 -0.0622105 0.000851505
-0.0844645 -0.0625378 0.000858733
-0.0812316 -0.0628865 0.000865364
-0.0780007 -0.0632532 0.000871036
-0.0747628 -0.063607 0.000876792
-0.0716078 -0.0637626 0.000886455
-0.0684661 -0.0640904 0.000890626
-0.0653287 -0.0644579 0.000893555
-0.0621914 -0.0648265 0.000896492
-0.0590626 -0.0651494 0.000900904
-0.0560869 -0.065293 0.000910417
-0.0531201 -0.0655648 0.000913019
-0.0501579 -0.0658816 0.00091317
-0.0471956 -0.0661985 0.000913322
-0.0442288 -0.066499 0.000919824
-0.0412863 -0.0667546 0.000942925
-0.0383443 -0.0670186 0.000949105
-0.0354027 -0.0672851 0.00094756
-0.032461 -0.0675513 0.000946018
-0.0295171 -0.0678027 0.000954228
-0.0265408 -0.0680275 0.00098367
-0.0235636 -0.0682429 0.000990529
-0.020586 -0.068451 0.000984908
-0.0176083 -0.0686582 0.000979316
-0.0146333 -0.0688213 0.000978333
-0.0116214 -0.0689051 0.000986037
-0.00861028 -0.069014 0.000982131
-0.00559968 -0.0691358 0.000971968
-0.00258903 -0.0692565 0.0009619
0.000425112 -0.0693682 0.000965351
0.00346047 -0.0694607 0.000991465
0.00649684 -0.0695168 0.000994232
0.00953354 -0.0695473 0.000981366
0.0125702 -0.0695774 0.000968651
0.0156022 -0.0696032 0.000969836
0.0186449 -0.0696216 0.000992761
0.0216875 -0.0695842 0.000994601
0.0247295 -0.0695135 0.000981746
0.0277715 -0.0694436 0.000969043
0.030814 -0.0693785 0.000968638
0.0338438 -0.0693259 0.000987584
0.0368718 -0.0692067 0.000988304
0.0398982 -0.0690524 0.000976641
0.0429247 -0.0688998 0.000965104
0.0459577 -0.0687826 0.000955369
0.0489759 -0.0687331 0.00094908
0.0519893 -0.0685552 0.000940904
0.0549984 -0.0683165 0.000931866
0.0580078 -0.06808 0.000922906
0.0610276 -0.0678932 0.000913691
0.0640615 -0.0678182 0.000903831
0.0670873 -0.0675857 0.00089472
0.0701078 -0.0672918 0.00088596
0.0731285 -0.0670006 0.000877278
0.0761594 -0.0667314 0.000870525
0.0792646 -0.0665135 0.000868823
0.0823608 -0.0661927 0.00086123
0.0854536 -0.0658405 0.00085176
0.0885467 -0.065492 0.000842386
0.0916647 -0.065166 0.000833289
0.0948249 -0.0649162 0.000825067
0.0979772 -0.0645815 0.00081202
0.101128 -0.064236 0.00079828
0.10428 -0.063896 0.000784759
0.107456 -0.0635758 0.000771285
0.110647 -0.0634716 0.000757108
0.113827 -0.0631824 0.000741551
0.117008 -0.0629025 0.000726373
0.12019 -0.0626423 0.000711782
0.123402 -0.0623989 0.000697635
0.126588 -0.0622464 0.000685625
0.129771 -0.0620534 0.000673055
0.132955 -0.0618744 0.000660936
0.13614 -0.0617089 0.000649249
0.13933 -0.0615562 0.000637964
0.140942 -0.0614947 0.000632667
0.142553 -0.0614302 0.000627583
0.144165 -0.0613695 0.000622692
0.145777 -0.0613109 0.000617877
0.147502 -0.0612507 0.000612805
0.149035 -0.0611993 0.000608371
0.150568 -0.0611456 0.000604049
0.152101 -0.0610894 0.000599839
0.153634 -0.0610306 0.000595743
0.155168 -0.060969 0.00059176
0.158315 -0.0608672 0.00058297
0.161462 -0.0607369 0.000576367
0.164608 -0.0605964 0.000570169
0.167753 -0.0604451 0.00056439
0.170905 -0.0602817 0.000559035
0.174044 -0.0601927 0.000551701
0.177179 -0.0600246 0.000547568
0.180313 -0.0598446 0.000543775
0.183447 -0.0596521 0.000540338
0.186597 -0.0594577 0.000536953
0.189732 -0.0593645 0.000537049
0.192862 -0.0591894 0.000534145
0.195993 -0.0590153 0.000531256
0.199124 -0.0588422 0.000528383
0.202269 -0.0586692 0.000525512
0.205402 -0.0585864 0.000525655
0.208532 -0.0584322 0.000522373
0.211662 -0.0582789 0.000519111
0.214793 -0.0581265 0.000515869
0.217933 -0.0579747 0.000512638
0.224191 -0.0578547 0.000503994
0.230446 -0.0576242 0.000503619
0.2367 -0.057394 0.000503244
0.242955 -0.0571639 0.000502869
0.249221 -0.0569336 0.000502494
0.255492 -0.0568304 0.000512997
0.261762 -0.0566871 0.000511292
0.268032 -0.0565443 0.000509593
0.274303 -0.0564019 0.000507899
0.280575 -0.05626 0.00050621
0.286864 -0.0562145 0.000502565
0.293152 -0.0561209 0.000500057
0.299439 -0.0560277 0.000497561
0.305727 -0.055935 0.000495078
0.312017 -0.0558427 0.000492607
0.318314 -0.0558056 0.000497398
0.324611 -0.0557351 0.000494545
0.330908 -0.055665 0.000491709
0.337206 -0.0555953 0.000488889
0.343504 -0.055526 0.000486085
0.349803 -0.0554996 0.000482563
0.356102 -0.055443 0.000479586
0.3624 -0.0553867 0.000476628
0.368699 -0.0553308 0.000473688
0.374999 -0.0552753 0.000470765
0.381289 -0.0552531 0.000467341
0.387579 -0.0552052 0.000464466
0.393869 -0.0551576 0.000461608
0.400159 -0.0551103 0.000458768
0.406449 -0.0550632 0.000455945
0.412727 -0.055044 0.00045277
0.419004 -0.055002 0.000450087
0.425282 -0.0549602 0.00044742
0.431559 -0.0549187 0.000444769
0.437837 -0.0548775 0.000442133
0.4441 -0.0548603 0.00043931
0.450362 -0.0548229 0.000436883
0.456625 -0.0547856 0.000434469
0.462887 -0.0547486 0.000432069
0.46915 -0.0547117 0.000429682
0.475399 -0.0546961 0.000427306
0.481649 -0.0546624 0.000425274
0.487899 -0.0546289 0.000423252
0.494148 -0.0545955 0.00042124
0.500398 -0.0545623 0.000419236
0.506641 -0.0545459 0.000420855
0.512884 -0.0545151 0.000419241
0.519128 -0.0544843 0.000417633
0.525371 -0.0544537 0.000416032
0.531614 -0.0544231 0.000414436
0.537853 -0.0544096 0.000413098
0.544092 -0.0543813 0.000412004
0.550331 -0.054353 0.000410913
0.55657 -0.0543248 0.000409825
0.562809 -0.0542967 0.00040874
0.569041 -0.0542826 0.000410506
0.575273 -0.0542563 0.000409766
0.581505 -0.05423 0.000409028
0.587737 -0.0542038 0.000408291
0.593969 -0.0541776 0.000407555
0.600195 -0.0541652 0.000407145
0.606421 -0.0541408 0.000406676
0.612647 -0.0541164 0.000406208
0.618873 -0.054092 0.000405741
0.6251 -0.0540677 0.000405274
0.631325 -0.0540553 0.000407219
0.637551 -0.0540325 0.000406966
0.643777 -0.0540096 0.000406713
0.650002 -0.0539868 0.000406459
0.656228 -0.053964 0.000406207
0.66246 -0.0539525 0.000406427
0.668691 -0.0539312 0.000406349
0.674923 -0.0539099 0.00040627
0.681154 -0.0538886 0.000406192
0.687386 -0.0538673 0.000406113
0.693627 -0.0538562 0.000406574
0.699869 -0.0538363 0.000406628
0.70611 -0.0538164 0.000406682
0.712351 -0.0537965 0.000406736
0.718593 -0.0537766 0.00040679
0.724846 -0.0537659 0.000407439
0.731099 -0.0537474 0.000407559
0.737352 -0.0537289 0.000407679
[...]
POINT_DATA 20642
 FIELD attributes 1
U 3 20642 float
19.9505 	-0.00436881 	0.000129251 19.9512 	-0.0043182 	0.000151608 19.9518 	-0.0042676 	0.000173965 19.9525 	-0.00421699 	0.000196322 19.9531 	-0.00416639 	0.000218679 19.9537 	-0.00411578 	0.000241036 19.9083 	-0.00765646 	-0.000278731 19.9083 	-0.00765525 	-0.000278686 19.9083 	-0.00765403 	-0.000278642 19.9083 	-0.00765281 	-0.000278598 19.9495 	-0.000528412 	0.000351906 19.8977 	-0.00845669 	0.000119398 19.8977 	-0.00845727 	0.000119406 19.8977 	-0.00845784 	0.000119414 19.8977 	-0.00845842 	0.000119422 19.9439 	-0.000704776 	0.000507184 19.8859 	-0.00960473 	0.000378383 19.8858 	-0.00960681 	0.000378465 19.8858 	-0.00960888 	0.000378547 19.8858 	-0.00961096 	0.000378629 19.9383 	-0.00665416 	0.000492677 19.872 	-0.0111302 	0.000470627 19.872 	-0.0111332 	0.000470754 19.8719 	-0.0111362 	0.00047088 19.8719 	-0.0111392 	0.000471007 19.9311 	-0.0083097 	0.00042132 19.8556 	-0.0134476 	0.000450237 19.8556 	-0.0134511 	0.000450353 19.8555 	-0.0134546 	0.000450469 19.8555 	-0.013458 	0.000450585 19.9209 	-0.00169778 	0.000310629 19.8359 	-0.0167847 	0.000301534 19.8358 	-0.0167876 	0.000301586 19.8358 	-0.0167905 	0.000301638 19.8358 	-0.0167934 	0.00030169 19.9126 	-0.013868 	-0.000150628 19.8106 	-0.0218658 	-4.12955e-05 19.8106 	-0.0218653 	-4.12945e-05 19.8107 	-0.0218648 	-4.12936e-05 19.8107 	-0.0218643 	-4.12926e-05 19.8995 	-0.0188656 	-0.000898819 19.7741 	-0.0303893 	-0.000909045 19.7742 	-0.0303735 	-0.000908571 19.7743 	-0.0303577 	-0.000908097 19.7744 	-0.0303418 	-0.000907624 19.8792 	-0.0278097 	-0.00241294 19.7085 	-0.0482106 	-0.00281093 19.7089 	-0.0481323 	-0.00280636 19.7094 	-0.0480541 	-0.0028018 19.7099 	-0.0479761 	-0.00279725 19.8231 	-0.0084976 	-0.00738333 19.5726 	-0.0877459 	-0.010408 19.5752 	-0.0872084 	-0.0103442 19.5778 	-0.0866742 	-0.0102809 19.5804 	-0.0861435 	-0.0102179 19.7131 	-0.069545 	-0.0163256 19.446 	-0.170943 	-0.0131779 19.4482 	-0.170256 	-0.0131249 19.4505 	-0.169571 	-0.0130721 19.4527 	-0.168889 	-0.0130195 19.7265 	-0.116008 	-0.0168079 19.4288 	-0.227043 	-0.0139295 19.4313 	-0.226056 	-0.013869 19.4338 	-0.225074 	-0.0138087 19.4362 	-0.224096 	-0.0137487 19.7303 	-0.157731 	-0.0197567 19.4146 	-0.309035 	-0.0173468 19.4178 	-0.30732 	-0.0172505 19.4211 	-0.305616 	-0.0171548 19.4243 	-0.303921 	-0.0170597 19.7307 	-0.207286 	-0.023724 19.3812 	-0.44142 	-0.0229826 19.3859 	-0.438071 	-0.0228083 19.3906 	-0.434749 	-0.0226353 19.3952 	-0.431453 	-0.0224637 19.7251 	-0.286291 	-0.0292704 19.2998 	-0.699925 	-0.0334388 19.3079 	-0.691864 	-0.0330537 19.3158 	-0.6839 	-0.0326732 19.3237 	-0.67603 	-0.0322972 19.7142 	-0.436165 	-0.0370321 19.2606 	-1.15151 	-0.0444865 19.2726 	-1.13282 	-0.0437647 19.2844 	-1.11445 	-0.043055 19.296 	-1.09639 	-0.0423572 19.728 	-0.69436 	-0.0366261 19.4562 	-1.4573 	-0.0300691 19.4593 	-1.4488 	-0.0298938 19.4625 	-1.44035 	-0.0297194 19.4656 	-1.43195 	-0.0295461 19.7004 	-0.746503 	-0.0507932 19.5938 	-1.5752 	-0.0182095 19.5952 	-1.56949 	-0.0181434 19.5967 	-1.5638 	-0.0180776 19.5982 	-1.55813 	-0.0180121 19.8652 	-0.808599 	-0.0127812 19.7487 	-1.76845 	-0.00829116 19.7492 	-1.76548 	-0.00827725 19.7496 	-1.76252 	-0.00826337 19.75 	-1.75957 	-0.0082495 19.9439 	-0.883498 	6.35904e-05 19.9279 	-2.01707 	0.00588266 19.9364 	-1.93536 	0.00666192 19.9496 	-1.80725 	0.00787108 19.9621 	-1.6872 	0.00901232 20.0329 	-0.99525 	0.0154098 20.1543 	-1.69418 	0.0257612 20.1532 	-1.55077 	0.0277999 20.1524 	-1.4177 	0.0297286 20.1517 	-1.29425 	0.0315555 20.1505 	-1.16971 	0.0330064 20.1553 	-1.18165 	0.0336544 20.1579 	-1.18254 	0.0341018 20.1604 	-1.18343 	0.0345493 20.163 	-1.18432 	0.0349969 20.1654 	-1.18519 	0.0354335 20.3321 	-1.46122 	0.0531895 20.3545 	-1.5577 	0.0508444 20.3766 	-1.65563 	0.0482341 20.3993 	-1.75611 	0.0454719 20.3288 	-1.44345 	0.0581388 20.6832 	-2.09249 	0.0462092 20.7518 	-2.23848 	0.0425623 20.7911 	-2.35919 	0.0365018 20.7641 	-2.26894 	0.0369099 20.3723 	-1.00508 	0.0623963 21.0296 	-2.19418 	0.0279222 21.1882 	-2.4818 	0.0197766 21.1921 	-2.48996 	0.0198416 21.0447 	-2.17173 	0.0296732 20.4965 	-0.989058 	0.0655246 21.2466 	-1.94663 	0.0186356 21.5255 	-2.30229 	0.00110152 21.5258 	-2.30267 	0.0011017 21.4268 	-2.16999 	0.046956 21.1796 	-1.84015 	0.166275 21.5895 	-1.93703 	0.0453527 21.7735 	-1.97285 	-0.0114318 21.7706 	-1.96964 	-0.0114132 21.6231 	-1.84659 	0.0603042 21.3343 	-1.61154 	0.211041 21.7403 	-1.57257 	0.0500883 21.9526 	-1.53487 	-0.0414416 21.9415 	-1.52616 	-0.0412064 21.5059 	-1.1792 	-0.00710195 20.7502 	-0.577111 	0.0530691 21.5587 	-0.78029 	-0.0279635 22.0101 	-0.890475 	-0.0743015 21.9893 	-0.88126 	-0.0735326 21.7924 	-0.807606 	0.0249543 21.3935 	-0.652294 	0.184052 21.8688 	-0.404098 	0.0199254 22.0853 	-0.221543 	-0.0935691 22.0583 	-0.218676 	-0.0923583 21.8329 	-0.185457 	0.00852907 21.3905 	-0.129786 	0.161166 21.8652 	0.268652 	0.0132217 22.0783 	0.513582 	-0.0932952 22.0515 	0.506944 	-0.0920895 21.8141 	0.466557 	-0.00290194 21.3562 	0.370833 	0.133543 21.8 	0.858194 	0.00518315 21.9997 	1.12125 	-0.0847773 21.9761 	1.10802 	-0.0837769 21.5348 	0.832416 	-0.0691164 20.7496 	0.340506 	-0.0432395 21.4532 	1.26635 	-0.0582059 21.8023 	1.72904 	-0.0654871 21.785 	1.71243 	-0.0648581 21.4296 	1.32531 	-0.0653895 20.685 	0.511696 	-0.0672307 21.3531 	1.6408 	-0.0642981 21.625 	2.10381 	-0.0627171 21.6091 	2.08321 	-0.0621031 21.453 	1.90559 	-0.0478001 21.0743 	1.47899 	-0.0115499 21.3697 	2.2141 	-0.0524048 21.4578 	2.44311 	-0.0657033 21.4418 	2.41625 	-0.0649808 21.299 	2.22664 	-0.0621435 20.8531 	1.6482 	-0.0542553 21.0951 	2.23979 	-0.0873104 21.1238 	2.31611 	-0.092104 21.1048 	2.27692 	-0.0905456 21.0362 	2.1214 	-0.0892559 20.4137 	0.666048 	-0.0906844 20.7836 	1.89025 	-0.101681 20.7538 	1.8264 	-0.0990343 20.6849 	1.69147 	-0.0948341 20.6191 	1.56268 	-0.0908171 20.2994 	0.971421 	-0.0765327 20.4117 	1.23778 	-0.0805918 20.3694 	1.14472 	-0.0775255 20.3292 	1.0561 	-0.0745941 20.2909 	0.97174 	-0.071792 20.1947 	0.77019 	-0.0663748 20.1967 	0.808183 	-0.0637135 20.1719 	0.760792 	-0.0612136 20.1606 	0.731959 	-0.0602209 20.1496 	0.703824 	-0.0592491 20.138 	0.674444 	-0.0582313 20.142 	0.706031 	-0.0567898 20.146 	0.738887 	-0.0553268 20.1503 	0.77306 	-0.0538411 20.1548 	0.808596 	-0.0523316 20.1333 	0.651283 	-0.0562316 20.1197 	0.833557 	-0.0422236 20.1259 	0.898556 	-0.0396503 20.1327 	0.968463 	-0.0369846 20.14 	1.04363 	-0.0342182 20.0914 	0.569863 	-0.046948 20.1024 	1.07822 	-0.0265043 20.1086 	1.15437 	-0.0243297 20.1153 	1.23569 	-0.0220662 20.1157 	1.2413 	-0.0216117 19.9829 	0.594522 	0.000615716 20.057 	1.12135 	-0.0186081 20.0567 	1.11528 	-0.0185074 20.0564 	1.10925 	-0.0184073 20.0561 	1.10325 	-0.0183078 19.9638 	0.52763 	0.000909735 20.0168 	0.986311 	-0.0209879 20.0166 	0.980152 	-0.0208568 20.0165 	0.974032 	-0.0207266 20.0164 	0.96795 	-0.0205972 19.9986 	0.383509 	-0.0276222 19.9215 	0.733951 	-0.00119578 19.9215 	0.733404 	-0.00119489 19.9216 	0.732858 	-0.001194 19.9216 	0.732312 	-0.00119311 19.8459 	0.326505 	0.0332394 19.9357 	0.455627 	-0.00542104 19.9359 	0.454112 	-0.00540302 19.9361 	0.452603 	-0.00538506 19.9363 	0.451099 	-0.00536716 19.9831 	0.144392 	-0.0115819 19.9692 	0.297428 	-0.00796598 19.9694 	0.295944 	-0.00792622 19.9695 	0.294466 	-0.00788666 19.9697 	0.292997 	-0.0078473 19.9283 	0.117259 	0.0151617 20.0028 	0.223943 	-0.00906071 20.0028 	0.222659 	-0.00900875 20.0028 	0.221382 	-0.00895709 20.0028 	0.220113 	-0.00890572 20.0084 	0.0841099 	-0.0111877 20.0362 	0.180007 	-0.00946921 20.0359 	0.178897 	-0.0094108 20.0357 	0.177793 	-0.00935274 20.0355 	0.176696 	-0.00929505 20.0223 	0.0704792 	-0.010898 20.0674 	0.152875 	-0.00917351 20.067 	0.151934 	-0.00911707 20.0666 	0.150999 	-0.00906097 20.0662 	0.15007 	-0.00900522 20.0353 	0.0614207 	-0.0101329 20.0926 	0.134401 	-0.00858684 20.0921 	0.133605 	-0.00853597 20.0915 	0.132813 	-0.00848539 20.091 	0.132026 	-0.0084351 20.0469 	0.0549858 	-0.00903841 20.1165 	0.120311 	-0.00779603 20.1158 	0.119646 	-0.00775296 20.1152 	0.118985 	-0.00771013 20.1146 	0.118327 	-0.00766753 20.0564 	0.050076 	-0.007623 20.1323 	0.10855 	-0.00654532 20.1316 	0.108033 	-0.0065142 20.131 	0.10752 	-0.00648322 20.1304 	0.107008 	-0.00645239 20.0351 	0.0525111 	0.00519383 20.1431 	0.0996101 	-0.00520701 20.1426 	0.0992281 	-0.00518704 20.1421 	0.0988476 	-0.00516715 20.1415 	0.0984685 	-0.00514733 20.0686 	0.0436176 	-0.00430395 20.1486 	0.0914777 	-0.00353215 20.1482 	0.0912356 	-0.0035228 20.1478 	0.090994 	-0.00351347 20.1474 	0.0907531 	-0.00350417 20.047 	0.0453923 	0.00567974 20.1513 	0.0851465 	-0.00239192 20.1511 	0.0849931 	-0.00238761 20.1508 	0.0848399 	-0.00238331 20.1505 	0.084687 	-0.00237901 20.0727 	0.0397748 	-0.00132323 20.1499 	0.0790456 	-0.00151582 20.1497 	0.0789547 	-0.00151407 20.1496 	0.0788638 	-0.00151233 20.1494 	0.0787731 	-0.00151059 20.0502 	0.0399114 	0.00626385 20.1467 	0.0739209 	-0.000820047 20.1466 	0.0738749 	-0.000819537 20.1465 	0.0738289 	-0.000819027 20.1464 	0.073783 	-0.000818517 20.0706 	0.0370034 	0.000710636 20.1406 	0.0689052 	-0.000253662 20.1406 	0.0688919 	-0.000253613 20.1405 	0.0688786 	-0.000253564 20.1405 	0.0688653 	-0.000253515 20.0679 	0.0355955 	0.00148271 20.1328 	0.0642031 	0.000173499 20.1328 	0.0642116 	0.000173522 20.1329 	0.0642201 	0.000173545 20.1329 	0.0642286 	0.000173567 20.0643 	0.0341283 	0.00208232 20.1238 	0.0595708 	0.000386611 20.1238 	0.0595884 	0.000386725 20.1239 	0.0596059 	0.000386839 20.1239 	0.0596235 	0.000386953 20.0602 	0.0324322 	0.00249842 20.1142 	0.054609 	0.000426231 20.1142 	0.0546267 	0.00042637 20.1142 	0.0546445 	0.000426508 20.1143 	0.0546622 	0.000426647 20.0557 	0.0305162 	0.00283704 20.1042 	0.0496851 	0.000523267 20.1042 	0.0497049 	0.000523475 20.1043 	0.0497246 	0.000523683 20.1043 	0.0497444 	0.000523891 20.0315 	0.0268448 	0.00583146 20.0935 	0.0448589 	0.000680441 20.0936 	0.044882 	0.00068079 20.0936 	0.044905 	0.00068114 20.0937 	0.0449281 	0.00068149 20.0456 	0.0264105 	0.00360865 20.081 	0.0399313 	0.000837321 20.081 	0.0399565 	0.000837848 20.0811 	0.0399816 	0.000838375 20.0811 	0.0400067 	0.000838903 20.0392 	0.0240192 	0.00400038 20.0663 	0.0344823 	0.000944956 20.0664 	0.0345067 	0.000945624 20.0664 	0.0345311 	0.000946293 20.0665 	0.0345555 	0.000946961 20.0316 	0.0212778 	0.00432892 20.0496 	0.0291845 	0.00103524 20.0497 	0.029207 	0.00103604 20.0497 	0.0292295 	0.00103684 20.0498 	0.0292521 	0.00103764 20.0225 	0.0179437 	0.00467272 20.03 	0.0222782 	0.00130294 20.03 	0.0222998 	0.0013042 20.03 	0.0223213 	0.00130546 20.03 	0.0223429 	0.00130673 20.0112 	0.0137295 	0.0052019 20.0027 	0.0141222 	0.00179034 20.0027 	0.0141409 	0.00179271 20.0027 	0.0141596 	0.00179508 20.0027 	0.0141783 	0.00179746 19.9736 	0.0135827 	0.00589057 19.9675 	0.00339618 	0.00229586 19.9674 	0.0034019 	0.00229973 19.9674 	0.00340763 	0.0023036 19.9673 	0.00341337 	0.00230749 19.9778 	0.00054075 	0.00663967 19.9219 	-0.0109848 	0.00267384 19.9217 	-0.0110061 	0.00267904 19.9216 	-0.0110275 	0.00268425 19.9214 	-0.011049 	0.00268946 19.9243 	0.00430705 	0.00629033 19.8649 	-0.0316959 	0.00278106 19.8647 	-0.0317593 	0.00278662 19.8644 	-0.0318228 	0.0027922 19.8641 	-0.0318864 	0.00279778 19.924 	-0.025812 	0.00699669 19.7892 	-0.060907 	0.00227499 19.7888 	-0.0610054 	0.00227867 19.7885 	-0.0611039 	0.00228235 19.7881 	-0.0612027 	0.00228604 19.8881 	-0.0484397 	0.00511018 19.6974 	-0.105971 	-7.00339e-05 19.6974 	-0.105966 	-7.00305e-05 19.6974 	-0.105961 	-7.0027e-05 19.6974 	-0.105955 	-7.00235e-05 19.8493 	-0.0817098 	-0.000222438 19.5966 	-0.17076 	-0.00716289 19.5987 	-0.169893 	-0.00712654 19.6007 	-0.169031 	-0.00709038 19.6027 	-0.168173 	-0.0070544 19.8108 	-0.132209 	-0.0101558 19.4875 	-0.296519 	-0.0194405 19.4949 	-0.29228 	-0.0191626 19.5021 	-0.288102 	-0.0188887 19.5092 	-0.283986 	-0.0186188 19.7724 	-0.218467 	-0.0240156 19.3733 	-0.491373 	-0.0352286 19.391 	-0.477459 	-0.034231 19.4082 	-0.463951 	-0.0332626 19.425 	-0.450837 	-0.0323224 19.6639 	-0.337141 	-0.0556183 19.4598 	-0.746506 	-0.0337346 19.4682 	-0.734889 	-0.0332096 19.4765 	-0.723457 	-0.032693 19.4846 	-0.712208 	-0.0321847 19.7109 	-0.357787 	-0.0532492 19.5681 	-0.830622 	-0.0273905 19.574 	-0.819131 	-0.0270116 19.5799 	-0.807802 	-0.026638 19.5857 	-0.796633 	-0.0262697 19.8335 	-0.448282 	-0.0333956 19.6525 	-0.971276 	-0.0271024 19.6577 	-0.956772 	-0.0266976 19.6628 	-0.942488 	-0.0262991 19.6679 	-0.92842 	-0.0259065 19.8889 	-0.516805 	-0.032852 19.757 	-1.2726 	-0.0217919 19.7603 	-1.25577 	-0.0215037 19.7634 	-1.23917 	-0.0212193 19.7666 	-1.22278 	-0.0209388 19.7845 	-0.822174 	-0.060209 19.9124 	-2.08239 	0.00780133 19.9162 	-1.93039 	0.00338684 19.9286 	-1.44854 	-0.00990522 19.9397 	-1.03151 	-0.0209863 20.11 	-1.31369 	-0.0343193 20.1161 	-1.34504 	-0.0332868 20.1145 	-1.33666 	-0.0335348 20.1129 	-1.3283 	-0.0337821 20.1114 	-1.31995 	-0.0340288 20.1098 	-1.31179 	-0.0342697 20.2189 	-1.43821 	-0.0189124 20.3327 	-1.58358 	-0.00343125 20.452 	-1.74859 	0.0122435 20.518 	-1.85083 	0.0204637 20.2454 	-0.846697 	-0.00113021 21.0858 	-2.86098 	-0.0084308 21.0801 	-2.84594 	-0.00838645 21.0744 	-2.83096 	-0.00834232 21.0688 	-2.81606 	-0.00829841 20.4362 	-0.973313 	0.0121088 22.1217 	-3.35039 	0.00828829 22.1309 	-3.36489 	0.00832415 22.1401 	-3.37944 	0.00836015 22.0861 	-3.29234 	0.0103805 20.796 	-1.21792 	0.0512376 23.0354 	-3.71155 	0.10542 24.4931 	-5.34389 	0.141574 24.474 	-5.34046 	0.142833 22.637 	-3.31926 	0.100732 20.9635 	-1.47421 	0.0620197 20.8047 	-1.23517 	0.0572332 20.6459 	-0.996171 	0.0524356 20.4872 	-0.757231 	0.0476273 20.3286 	-0.518385 	0.0428087 19.4593 	0 	0 19.1895 	-0.408698 	0.086879 19.4324 	-0.426717 	0.0907092 19.6764 	-0.445294 	0.0946582 19.9214 	-0.464439 	0.098728 18.9915 	0 	0 20.1397 	-0.340435 	0.150199 20.2192 	-0.351455 	0.155061 20.1603 	-0.302021 	0.13325 19.7975 	-0.119239 	0.0526076 19.5651 	0 	0 19.8749 	-0.0650775 	0.020486 20.1893 	-0.131456 	0.0413814 20.2486 	-0.17098 	0.0442222 20.2927 	-0.209277 	0.0459786 20.2085 	-0.121317 	0.0228771 20.3022 	-0.0997769 	0.0604855 20.3307 	-0.108219 	0.0627901 20.3594 	-0.116739 	0.0651413 20.3884 	-0.125341 	0.0675397 20.0985 	-0.107079 	0.0422573 20.3922 	-0.0884678 	0.0761666 20.3883 	-0.0850805 	0.077647 20.3845 	-0.081642 	0.0791574 20.3805 	-0.0781513 	0.0806983 20.2564 	-0.00281291 	0.0274892 20.2468 	0.097433 	0.0772207 20.2106 	0.0867773 	0.0803436 20.1747 	0.0762127 	0.0835393 19.8794 	0.0450949 	0.0531531 19.4146 	0.000253681 	9.6885e-05 19.4203 	0.00151976 	0.000677433 19.4185 	0.00113972 	0.00050803 19.4167 	0.000759709 	0.00033864 19.4149 	0.000379727 	0.000169263 19.4131 	0 	0 20.05 	0.162456 	0.32348 19.8558 	0.177177 	0.352792 19.6621 	0.193205 	0.384706 19.4699 	0.210854 	0.419848 18.7083 	0 	0 19.9467 	0.5266 	0.254364 19.9608 	0.869172 	0.274626 19.9748 	1.21254 	0.29535 19.9886 	1.5566 	0.316537 20.0107 	2.1104 	0.351329 19.969 	2.73161 	0.449616 19.9379 	3.2249 	0.527896 19.9652 	2.94261 	0.484182 19.991 	2.67174 	0.442207 20.0124 	2.44597 	0.407195 20.0122 	2.44349 	0.407276 20.012 	2.44101 	0.407358 20.0118 	2.43853 	0.407439 20.0117 	2.43605 	0.407521 20.004 	2.431 	0.404702 20.0062 	2.43096 	0.395924 20.0008 	2.42693 	0.385595 19.9954 	2.42287 	0.375247 19.99 	2.41878 	0.364882 19.9876 	2.41695 	0.360257 19.9231 	2.40979 	0.299083 19.8485 	2.40724 	0.237961 19.7639 	2.40919 	0.176876 19.6692 	2.41557 	0.115813 19.8487 	2.15084 	0.0808906 19.8518 	2.04604 	0.0865391 19.8549 	1.9427 	0.092176 19.8579 	1.84081 	0.097802 19.8608 	1.74035 	0.103418 19.5143 	1.54488 	0.0581012 19.7479 	1.82103 	0.0949187 19.6043 	2.04088 	0.125869 19.461 	2.2584 	0.156761 19.3179 	2.47354 	0.187591 19.0964 	2.80356 	0.235313 18.7575 	3.30149 	0.26854 18.4199 	3.78508 	0.305512 18.0863 	4.2493 	0.346392 18.0255 	4.19843 	0.391002 17.9571 	3.96296 	0.473374 18.0173 	4.06107 	0.430569 17.9855 	4.10019 	0.440962 17.9359 	4.13052 	0.461302 17.885 	4.16293 	0.48201 17.876 	4.13952 	0.489089 17.8793 	4.23695 	0.423423 17.8855 	4.32357 	0.357106 17.8951 	4.39857 	0.290118 18.0708 	4.1878 	0.219462 18.9055 	2.86057 	0.135503 18.356 	3.99442 	0.129657 17.8199 	5.10066 	0.123949 17.697 	5.34841 	0.100041 17.7252 	4.00564 	0.193332 17.9572 	2.55158 	0.251344 17.9363 	3.81744 	0.142403 17.9315 	4.81553 	0.0537528 17.9903 	4.45409 	0.0692857 18.2031 	3.92157 	0.0575245 18.4384 	2.54969 	0.114323 18.3636 	3.58336 	0.0206668 18.4979 	3.32985 	-0.0130091 18.551 	3.09308 	-0.00909866 18.5855 	2.87445 	0.0013936 18.6338 	2.56006 	0.0166577 18.6258 	2.64433 	0.0107181 18.6277 	2.62299 	0.0122541 18.6295 	2.60186 	0.0137781 18.6312 	2.58095 	0.0152903 18.6328 	2.56192 	0.0166697 18.53 	2.7084 	0.0216778 18.4204 	2.86468 	0.0269991 18.3388 	3.03094 	0.0207833 18.295 	3.20516 	2.77766e-05 18.4621 	2.5294 	-0.00547383 18.2554 	3.60146 	-0.062276 18.1284 	3.8305 	-0.0651927 17.9914 	4.07203 	-0.0694881 18.1184 	3.76118 	-0.0817088 18.8115 	2.4145 	-0.0812174 18.8438 	3.31436 	-0.122468 18.6469 	3.57361 	-0.105053 18.5867 	3.29755 	-0.0968552 18.514 	3.03104 	-0.0886195 18.4184 	1.41179 	-0.0891846 18.7049 	2.14029 	-0.0728627 18.7834 	1.77788 	-0.0589069 18.7589 	1.65334 	-0.0502457 18.7348 	1.5382 	-0.042176 18.5554 	1.00828 	-0.00221895 18.7229 	1.25232 	-0.0305903 18.6938 	1.19053 	-0.0241251 18.6647 	1.13266 	-0.0179658 18.6523 	1.04987 	-0.0114518 18.7327 	0.722318 	-0.000470386 18.7491 	0.737773 	-0.00078691 18.7485 	0.695337 	-0.000210791 18.748 	0.653431 	0.000309502 18.7471 	0.618736 	0.000859761 18.7429 	0.608821 	0.00194864 18.7374 	0.638634 	0.00361103 18.7313 	0.670016 	0.0053532 18.7246 	0.70305 	0.00717938 18.7173 	0.737824 	0.00909408 18.7523 	0.586533 	0.019673 18.695 	0.737646 	0.0154894 18.6891 	0.786987 	0.0177862 18.6825 	0.839706 	0.0202352 18.6751 	0.896036 	0.022847 18.75 	0.531596 	0.0377836 18.6312 	0.9488 	0.0321221 18.6311 	1.01331 	0.0336306 18.6312 	1.08204 	0.0352365 18.6314 	1.15527 	0.0369462 18.5256 	0.516347 	0.0227836 18.6055 	0.913964 	0.0297942 18.5895 	0.92448 	0.030137 18.5732 	0.935126 	0.0304841 18.5568 	0.945904 	0.0308354 18.8882 	0.182285 	0.0861824 18.474 	0.69723 	0.0326236 18.4561 	0.705414 	0.0330065 18.438 	0.713702 	0.0333943 18.4196 	0.722095 	0.0337871 18.5035 	0.158015 	0.0217337 18.3803 	0.602824 	0.0264132 18.3657 	0.608275 	0.026652 18.3509 	0.613781 	0.0268933 18.336 	0.619341 	0.0271369 18.7903 	0.16535 	0.06092 18.1841 	0.561673 	0.0270885 18.168 	0.566651 	0.0273286 18.1518 	0.571678 	0.0275711 18.1354 	0.576754 	0.0278159 18.69 	0.171176 	0.0502283 17.9236 	0.536095 	0.0312604 17.9031 	0.54138 	0.0315686 17.8824 	0.546724 	0.0318802 17.8615 	0.552126 	0.0321952 18.566 	0.17977 	0.0450312 17.6032 	0.517812 	0.0367442 17.5764 	0.523606 	0.0371553 17.5492 	0.529474 	0.0375718 17.5217 	0.535417 	0.0379935 18.0024 	0.108883 	-0.0188364 17.2697 	0.495726 	0.0408903 17.2364 	0.501773 	0.0413891 17.2026 	0.507906 	0.041895 17.1684 	0.514126 	0.0424081 18.2885 	0.195638 	0.0380663 16.8365 	0.484866 	0.044651 16.7958 	0.49111 	0.045226 16.7544 	0.497451 	0.0458099 16.7124 	0.503888 	0.0464028 18.1091 	0.202418 	0.0349862 16.3444 	0.474187 	0.0466807 16.2967 	0.480378 	0.0472901 16.2482 	0.486667 	0.0479093 16.1989 	0.493058 	0.0485384 17.4837 	0.0857371 	-0.0327203 15.8701 	0.447185 	0.0425364 15.8217 	0.452427 	0.043035 15.7725 	0.457746 	0.0435409 15.7801 	0.455834 	0.0433364 17.3727 	0.0789556 	-0.0372595 15.6026 	0.385865 	0.0274691 15.6573 	0.380426 	0.0267655 15.7112 	0.375067 	0.0260737 15.7644 	0.369785 	0.0253935 17.6581 	0.189502 	0.00558634 15.663 	0.304613 	0.00614921 15.7212 	0.301346 	0.00614092 15.7785 	0.29813 	0.00613283 15.8349 	0.294962 	0.00612494 17.585 	0.171096 	-0.00771304 15.7948 	0.232224 	-0.0177264 15.8547 	0.22977 	-0.0174181 15.9137 	0.227357 	-0.0171144 15.9717 	0.224983 	-0.0168153 17.5872 	0.146331 	-0.0200206 15.9943 	0.170521 	-0.0374364 16.0538 	0.168542 	-0.0368483 16.1123 	0.166599 	-0.03627 16.