# vtk DataFile Version 2.0
track0
ASCII
DATASET POLYDATA
POINTS 20642 float
-1.001 -0.05 0.0011
-1.00079 -0.05 0.0011
-1.00058 -0.0500001 0.0011
-1.00038 -0.0500001 0.0011
-1.00017 -0.0500002 0.00110001
-0.999962 -0.0500002 0.00110001
-0.98746 -0.0500028 0.00110016
-0.974958 -0.0500076 0.00109999
-0.962456 -0.0500124 0.00109981
-0.949954 -0.0500172 0.00109964
-0.937452 -0.050022 0.00109946
-0.924948 -0.0500224 0.00109968
-0.912445 -0.0500277 0.00109976
-0.899941 -0.050033 0.00109983
-0.887437 -0.0500383 0.00109991
-0.874933 -0.0500436 0.00109998
-0.862428 -0.0500441 0.0011003
-0.849922 -0.0500501 0.00110054
-0.837416 -0.0500561 0.00110077
-0.82491 -0.0500622 0.00110101
-0.812404 -0.0500682 0.00110125
-0.799896 -0.0500724 0.00110156
-0.787388 -0.0500794 0.00110186
-0.774879 -0.0500864 0.00110215
-0.762371 -0.0500934 0.00110245
-0.749862 -0.0501004 0.00110275
-0.737351 -0.0501057 0.00110301
-0.724839 -0.0501141 0.00110329
-0.712327 -0.0501226 0.00110358
-0.699816 -0.0501311 0.00110386
-0.687304 -0.0501396 0.00110415
-0.674789 -0.0501406 0.00110434
-0.662273 -0.0501512 0.00110453
-0.649757 -0.0501618 0.00110472
-0.637242 -0.0501724 0.00110491
-0.624726 -0.050183 0.0011051
-0.612206 -0.0501917 0.00110501
-0.599685 -0.0502055 0.00110498
-0.587165 -0.0502194 0.00110495
-0.574644 -0.0502332 0.00110493
-0.562124 -0.050247 0.0011049
-0.549598 -0.0502589 0.00110434
-0.537072 -0.0502781 0.00110376
-0.524546 -0.0502974 0.00110319
-0.51202 -0.0503166 0.00110261
-0.499494 -0.0503358 0.00110204
-0.486962 -0.0503533 0.00110051
-0.47443 -0.050384 0.00109873
-0.461898 -0.0504146 0.00109694
-0.449366 -0.0504452 0.00109516
-0.436834 -0.0504757 0.00109338
-0.424293 -0.050481 0.00108871
-0.411752 -0.0505373 0.00108204
-0.399211 -0.0505931 0.00107542
-0.386669 -0.0506487 0.00106883
-0.374128 -0.0507038 0.00106228
-0.367853 -0.050726 0.00105709
-0.361578 -0.0507811 0.00105284
-0.355302 -0.0508361 0.0010486
-0.349027 -0.0508908 0.00104438
-0.342751 -0.0509453 0.00104018
-0.336478 -0.0509822 0.00103484
-0.330205 -0.0510555 0.00103034
-0.323932 -0.0511284 0.00102586
-0.317659 -0.0512011 0.00102141
-0.311385 -0.0512734 0.00101697
-0.305109 -0.0513236 0.00101068
-0.298833 -0.0514235 0.00100508
-0.292557 -0.0515228 0.0009995
-0.286282 -0.0516216 0.000993957
-0.280004 -0.0517198 0.000988443
-0.273728 -0.0517857 0.000980897
-0.267453 -0.0519286 0.000973456
-0.261178 -0.0520704 0.000966074
-0.254904 -0.0522111 0.000958749
-0.248625 -0.0523508 0.000951476
-0.242358 -0.0524418 0.000942178
-0.236096 -0.0526689 0.000931327
-0.229833 -0.0528933 0.000920606
-0.22357 -0.053115 0.000910012
-0.217295 -0.0533346 0.000899524
-0.211049 -0.0534728 0.000887791
-0.204812 -0.0538456 0.000873386
-0.198576 -0.0542122 0.000859224
-0.192338 -0.0545727 0.000845298
-0.186067 -0.054929 0.000831532
-0.182944 -0.0550389 0.000825734
-0.179828 -0.0552723 0.000820918
-0.176712 -0.0555043 0.000816131
-0.173595 -0.055735 0.000811372
-0.170452 -0.0559662 0.000806601
-0.167328 -0.0560845 0.000798547
-0.164212 -0.0563351 0.000795651
-0.161096 -0.0565847 0.000792765
-0.157979 -0.0568333 0.000789891
-0.154833 -0.0570835 0.000786999
-0.151687 -0.0572116 0.000784974
-0.14855 -0.0574924 0.000783658
-0.145413 -0.0577728 0.000782343
-0.142277 -0.0580528 0.000781031
-0.139104 -0.0583354 0.000779705
-0.135929 -0.0584761 0.000779715
-0.132767 -0.0587961 0.000780649
-0.129603 -0.0591032 0.000781706
-0.126438 -0.05939 0.000782955
-0.123238 -0.0596605 0.000784399
-0.120026 -0.05982 0.000786871
-0.116821 -0.0600895 0.000790967
-0.113614 -0.0603362 0.000795391
-0.110405 -0.0605619 0.000800124
-0.107188 -0.0607686 0.000805162
-0.107126 -0.0607722 0.000805264
-0.107063 -0.0607759 0.000805369
-0.107 -0.0607795 0.000805475
-0.106938 -0.0607832 0.000805582
-0.106877 -0.0607868 0.000805688
-0.103687 -0.0609742 0.000811292
-0.100501 -0.0612033 0.000819628
-0.0973154 -0.061447 0.000827585
-0.0941312 -0.0617058 0.000835123
-0.0909432 -0.0619802 0.000842229
-0.0876997 -0.0622105 0.000851505
-0.0844645 -0.0625378 0.000858733
-0.0812316 -0.0628865 0.000865364
-0.0780007 -0.0632532 0.000871036
-0.0747628 -0.063607 0.000876792
-0.0716078 -0.0637626 0.000886455
-0.0684661 -0.0640904 0.000890626
-0.0653287 -0.0644579 0.000893555
-0.0621914 -0.0648265 0.000896492
-0.0590626 -0.0651494 0.000900904
-0.0560869 -0.065293 0.000910417
-0.0531201 -0.0655648 0.000913019
-0.0501579 -0.0658816 0.00091317
-0.0471956 -0.0661985 0.000913322
-0.0442288 -0.066499 0.000919824
-0.0412863 -0.0667546 0.000942925
-0.0383443 -0.0670186 0.000949105
-0.0354027 -0.0672851 0.00094756
-0.032461 -0.0675513 0.000946018
-0.0295171 -0.0678027 0.000954228
-0.0265408 -0.0680275 0.00098367
-0.0235636 -0.0682429 0.000990529
-0.020586 -0.068451 0.000984908
-0.0176083 -0.0686582 0.000979316
-0.0146333 -0.0688213 0.000978333
-0.0116214 -0.0689051 0.000986037
-0.00861028 -0.069014 0.000982131
-0.00559968 -0.0691358 0.000971968
-0.00258903 -0.0692565 0.0009619
0.000425112 -0.0693682 0.000965351
0.00346047 -0.0694607 0.000991465
0.00649684 -0.0695168 0.000994232
0.00953354 -0.0695473 0.000981366
0.0125702 -0.0695774 0.000968651
0.0156022 -0.0696032 0.000969836
0.0186449 -0.0696216 0.000992761
0.0216875 -0.0695842 0.000994601
0.0247295 -0.0695135 0.000981746
0.0277715 -0.0694436 0.000969043
0.030814 -0.0693785 0.000968638
0.0338438 -0.0693259 0.000987584
0.0368718 -0.0692067 0.000988304
0.0398982 -0.0690524 0.000976641
0.0429247 -0.0688998 0.000965104
0.0459577 -0.0687826 0.000955369
0.0489759 -0.0687331 0.00094908
0.0519893 -0.0685552 0.000940904
0.0549984 -0.0683165 0.000931866
0.0580078 -0.06808 0.000922906
0.0610276 -0.0678932 0.000913691
0.0640615 -0.0678182 0.000903831
0.0670873 -0.0675857 0.00089472
0.0701078 -0.0672918 0.00088596
0.0731285 -0.0670006 0.000877278
0.0761594 -0.0667314 0.000870525
0.0792646 -0.0665135 0.000868823
0.0823608 -0.0661927 0.00086123
0.0854536 -0.0658405 0.00085176
0.0885467 -0.065492 0.000842386
0.0916647 -0.065166 0.000833289
0.0948249 -0.0649162 0.000825067
0.0979772 -0.0645815 0.00081202
0.101128 -0.064236 0.00079828
0.10428 -0.063896 0.000784759
0.107456 -0.0635758 0.000771285
0.110647 -0.0634716 0.000757108
0.113827 -0.0631824 0.000741551
0.117008 -0.0629025 0.000726373
0.12019 -0.0626423 0.000711782
0.123402 -0.0623989 0.000697635
0.126588 -0.0622464 0.000685625
0.129771 -0.0620534 0.000673055
0.132955 -0.0618744 0.000660936
0.13614 -0.0617089 0.000649249
0.13933 -0.0615562 0.000637964
0.140942 -0.0614947 0.000632667
0.142553 -0.0614302 0.000627583
0.144165 -0.0613695 0.000622692
0.145777 -0.0613109 0.000617877
0.147502 -0.0612507 0.000612805
0.149035 -0.0611993 0.000608371
0.150568 -0.0611456 0.000604049
0.152101 -0.0610894 0.000599839
0.153634 -0.0610306 0.000595743
0.155168 -0.060969 0.00059176
0.158315 -0.0608672 0.00058297
0.161462 -0.0607369 0.000576367
0.164608 -0.0605964 0.000570169
0.167753 -0.0604451 0.00056439
0.170905 -0.0602817 0.000559035
0.174044 -0.0601927 0.000551701
0.177179 -0.0600246 0.000547568
0.180313 -0.0598446 0.000543775
0.183447 -0.0596521 0.000540338
0.186597 -0.0594577 0.000536953
0.189732 -0.0593645 0.000537049
0.192862 -0.0591894 0.000534145
0.195993 -0.0590153 0.000531256
0.199124 -0.0588422 0.000528383
0.202269 -0.0586692 0.000525512
0.205402 -0.0585864 0.000525655
0.208532 -0.0584322 0.000522373
0.211662 -0.0582789 0.000519111
0.214793 -0.0581265 0.000515869
0.217933 -0.0579747 0.000512638
0.224191 -0.0578547 0.000503994
0.230446 -0.0576242 0.000503619
0.2367 -0.057394 0.000503244
0.242955 -0.0571639 0.000502869
0.249221 -0.0569336 0.000502494
0.255492 -0.0568304 0.000512997
0.261762 -0.0566871 0.000511292
0.268032 -0.0565443 0.000509593
0.274303 -0.0564019 0.000507899
0.280575 -0.05626 0.00050621
0.286864 -0.0562145 0.000502565
0.293152 -0.0561209 0.000500057
0.299439 -0.0560277 0.000497561
0.305727 -0.055935 0.000495078
0.312017 -0.0558427 0.000492607
0.318314 -0.0558056 0.000497398
0.324611 -0.0557351 0.000494545
0.330908 -0.055665 0.000491709
0.337206 -0.0555953 0.000488889
0.343504 -0.055526 0.000486085
0.349803 -0.0554996 0.000482563
0.356102 -0.055443 0.000479586
0.3624 -0.0553867 0.000476628
0.368699 -0.0553308 0.000473688
0.374999 -0.0552753 0.000470765
0.381289 -0.0552531 0.000467341
0.387579 -0.0552052 0.000464466
0.393869 -0.0551576 0.000461608
0.400159 -0.0551103 0.000458768
0.406449 -0.0550632 0.000455945
0.412727 -0.055044 0.00045277
0.419004 -0.055002 0.000450087
0.425282 -0.0549602 0.00044742
0.431559 -0.0549187 0.000444769
0.437837 -0.0548775 0.000442133
0.4441 -0.0548603 0.00043931
0.450362 -0.0548229 0.000436883
0.456625 -0.0547856 0.000434469
0.462887 -0.0547486 0.000432069
0.46915 -0.0547117 0.000429682
0.475399 -0.0546961 0.000427306
0.481649 -0.0546624 0.000425274
0.487899 -0.0546289 0.000423252
0.494148 -0.0545955 0.00042124
0.500398 -0.0545623 0.000419236
0.506641 -0.0545459 0.000420855
0.512884 -0.0545151 0.000419241
0.519128 -0.0544843 0.000417633
0.525371 -0.0544537 0.000416032
0.531614 -0.0544231 0.000414436
0.537853 -0.0544096 0.000413098
0.544092 -0.0543813 0.000412004
0.550331 -0.054353 0.000410913
0.55657 -0.0543248 0.000409825
0.562809 -0.0542967 0.00040874
0.569041 -0.0542826 0.000410506
0.575273 -0.0542563 0.000409766
0.581505 -0.05423 0.000409028
0.587737 -0.0542038 0.000408291
0.593969 -0.0541776 0.000407555
0.600195 -0.0541652 0.000407145
0.606421 -0.0541408 0.000406676
0.612647 -0.0541164 0.000406208
0.618873 -0.054092 0.000405741
0.6251 -0.0540677 0.000405274
0.631325 -0.0540553 0.000407219
0.637551 -0.0540325 0.000406966
0.643777 -0.0540096 0.000406713
0.650002 -0.0539868 0.000406459
0.656228 -0.053964 0.000406207
0.66246 -0.0539525 0.000406427
0.668691 -0.0539312 0.000406349
0.674923 -0.0539099 0.00040627
0.681154 -0.0538886 0.000406192
0.687386 -0.0538673 0.000406113
0.693627 -0.0538562 0.000406574
0.699869 -0.0538363 0.000406628
0.70611 -0.0538164 0.000406682
0.712351 -0.0537965 0.000406736
0.718593 -0.0537766 0.00040679
0.724846 -0.0537659 0.000407439
0.731099 -0.0537474 0.000407559
0.737352 -0.0537289 0.000407679
[...]
POINT_DATA 20642
 FIELD attributes 2
p 1 20642 float
18.5375 18.5431 18.5486 18.5542 18.5597 18.5653 18.861 19.1568 19.4527 19.7485 20.0859 20.4527 20.8023 21.1519 21.5015 21.8478 22.2353 22.6171 22.999 23.3808 23.7746 24.2361 24.6769 25.1177 25.5584 26.0002 26.5222 27.0341 27.546 28.0579 28.5905 29.2299 29.8185 30.4071 30.9958 31.5813 32.2843 32.9552 33.6262 34.2971 35.0118 35.9051 36.6552 37.4053 38.1554 38.8869 39.8227 40.635 41.4474 42.2597 43.1705 44.5608 45.4032 46.2457 47.0883 48.435 49.0664 49.6046 50.1889 50.7732 51.2629 51.6483 51.6952 51.742 52.109 52.2394 52.6056 52.7339 52.5327 52.3316 52.0409 51.8706 51.1962 50.5222 50.2348 49.7529 49.3766 48.4144 46.9616 45.5101 44.1053 42.3526 39.8884 37.4277 35.3215 32.3286 30.8713 29.4569 27.9967 26.5373 25.1646 22.8358 20.5088 18.1824 15.9746 13.9403 11.1969 8.53925 5.95077 3.36257 0.766381 -2.87264 -5.73595 -8.55491 -11.3686 -14.0226 -17.4961 -20.4554 -23.4139 -26.3714 -29.3371 -29.4107 -29.4662 -29.5218 -29.5774 -29.6316 -32.5009 -35.2939 -38.0796 -40.858 -43.2102 -45.2165 -47.6087 -49.9542 -52.2161 -54.0831 -55.1139 -57.074 -59.3361 -60.7253 -62.9348 -63.2287 -63.7072 -64.7806 -66.3911 -68.6026 -67.6971 -67.4371 -67.686 -68.4702 -69.8808 -68.4929 -67.7162 -67.7182 -68.4037 -69.5951 -68.5882 -68.0681 -68.1849 -69.1923 -70.858 -69.6034 -68.8938 -69.1083 -70.0401 -71.4924 -70.3577 -69.6471 -69.7945 -70.5366 -71.6609 -70.3525 -69.5933 -69.6588 -70.0231 -70.7587 -69.6053 -68.9616 -68.979 -69.3047 -69.9047 -68.5354 -68.1038 -68.3304 -69.3007 -71.2706 -69.7923 -69.2384 -69.1261 -69.5911 -70.7717 -68.625 -67.2769 -65.3246 -63.4644 -62.6571 -60.3629 -58.1047 -55.8282 -53.5322 -51.792 -49.7671 -47.7444 -45.7128 -43.6728 -41.7362 -40.7743 -39.8184 -38.8599 -37.9005 -36.873 -35.9457 -35.0188 -34.0925 -33.1667 -32.1608 -30.4721 -28.7993 -27.1266 -25.454 -23.5909 -22.0954 -20.6332 -19.169 -17.7085 -16.0571 -14.7472 -13.2646 -11.7822 -10.3001 -8.65473 -7.56056 -6.63011 -5.6999 -4.77059 -4.02586 -2.71036 -1.59056 -0.470808 0.70106 2.16219 2.18597 2.41226 2.63841 2.86443 2.84213 2.2895 1.75166 1.21369 0.675589 -0.163568 -1.40327 -2.2656 -3.12799 -3.99046 -4.86195 -5.95041 -6.93208 -7.9138 -8.90784 -10.1346 -11.4512 -12.5168 -13.5721 -14.6273 -15.6584 -16.7802 -17.8141 -18.8481 -19.8926 -20.973 -22.0252 -22.9489 -23.8671 -24.7852 -25.6357 -26.4735 -27.2274 -27.9813 -28.7403 -29.445 -30.1256 -30.6968 -31.2633 -31.8297 -32.319 -32.7811 -33.154 -33.527 -33.9043 -34.2038 -34.4752 -34.6552 -34.8345 -35.0139 -35.1074 -35.1845 -35.184 -35.1834 -35.1821 -35.0978 -35.0185 -34.8654 -34.7119 -34.5584 -34.3348 -34.1202 -33.8452 -33.5701 -33.2953 -32.96 -32.6331 -32.2582 -31.8853 -31.5124 -31.0877 -30.6819 -30.239 -29.796 -29.3472 -28.8513 -28.3886 -27.9041 -27.4233 -26.9425 -26.434 -25.9526 -25.4489 -24.9451 -24.4415 -23.913 -23.3834 -22.8293 -22.2761 -21.7229 -21.1467 -20.5299 -19.8942 -19.2585 -18.6166 -17.9475 -17.1959 -16.4357 -15.6853 -14.9348 -14.1632 -13.2787 -12.3822 -11.4857 -10.5742 -9.63302 -8.51334 -7.40265 -6.31401 -5.22538 -4.12039 -2.79444 -1.47185 -0.149257 1.21298 2.61901 4.34413 6.01526 7.61974 9.22421 10.8497 12.8078 14.7353 16.6629 18.6934 20.8113 23.3574 25.7427 27.9769 30.2112 32.4568 34.9889 37.3799 39.7709 42.3717 45.1024 48.0646 50.5627 52.7867 55.0108 57.1569 59.0706 60.5648 62.0591 63.8451 65.7761 67.2323 67.4737 67.3405 67.2083 66.7614 65.189 62.5613 59.9376 57.5766 56.011 54.3267 52.4603 49.9235 47.3521 44.6767 41.3996 37.7882 34.1791 30.9949 27.7228 23.4023 18.8301 13.907 8.98763 4.19527 -2.61811 -9.40789 -16.1933 -22.9745 -29.2616 -39.523 -47.785 -55.5551 -63.2946 -71.1404 -71.3423 -71.4629 -71.5835 -71.7041 -71.8222 -81.3413 -90.8572 -100.368 -109.989 -116.968 -126.715 -137.523 -148.337 -159.157 -166.733 -177.1 -182.278 -187.315 -191.985 -193.003 -207.094 -216.562 -218.09 -210.425 -203.892 -204.511 -205.145 -205.795 -206.461 -206.972 -208.123 -210.605 -213.087 -215.568 -216.855 -216.363 -214.24 -211.557 -207.651 -205.052 -202.736 -200.402 -198.094 -195.778 -194.251 -188.317 -181.433 -174.546 -167.657 -161.045 -156.54 -151.99 -147.441 -142.893 -138.927 -136.818 -135.184 -133.548 -132.005 -130.518 -130.511 -130.51 -130.509 -130.508 -130.507 -130.922 -128.699 -126.503 -124.339 -120.577 -117.398 -114.823 -112.28 -109.77 -105.79 -109.766 -112.233 -106.08 -100.096 -95.0375 -94.9804 -94.9233 -94.8661 -94.809 -94.7456 -94.3619 -93.9867 -93.6116 -93.2366 -93.0696 -90.8019 -88.5465 -86.3038 -84.0746 -80.0463 -77.8389 -75.6247 -73.4039 -71.1766 -69.3744 -68.125 -67.0644 -66.0148 -64.9764 -63.3832 -60.9104 -58.5129 -56.1936 -54.0819 -52.2234 -51.9068 -51.5806 -51.2528 -50.9254 -50.6499 -49.3492 -48.0645 -46.7948 -45.6134 -44.7039 -44.05 -43.5502 -43.3812 -42.5662 -41.6133 -41.2849 -40.934 -39.9253 -38.9897 -37.6177 -36.3895 -35.3951 -34.3394 -33.2551 -32.1696 -32.0407 -31.9464 -31.852 -31.7573 -31.67 -30.9498 -30.237 -29.5124 -28.7714 -28.0034 -27.7361 -27.7421 -27.7548 -27.8415 -28.0434 -29.6934 -29.9914 -29.1526 -28.2135 -26.9644 -26.6702 -26.3233 -25.9911 -25.6623 -25.2863 -25.2813 -25.2552 -25.2307 -25.1972 -25.092 -25.1544 -25.2117 -25.2692 -25.3293 -25.4189 -25.6289 -25.8379 -26.0458 -26.2525 -26.5484 -26.5002 -26.4329 -26.3651 -26.2969 -26.2988 -25.5446 -25.1184 -24.6888 -24.2558 -24.6044 -23.918 -23.694 -23.7118 -22.987 -22.7394 -21.877 -21.3143 -20.5917 -19.8692 -19.4674 -18.8056 -18.2699 -17.7344 -17.2029 -16.8212 -16.1384 -15.5914 -15.042 -14.4927 -14.101 -13.3919 -12.8349 -12.278 -11.7227 -11.3307 -10.6629 -10.1484 -9.63526 -9.12215 -8.77121 -8.17396 -7.72703 -7.28014 -6.83205 -6.5212 -5.99876 -5.61951 -5.24111 -4.86276 -4.6268 -4.16736 -3.8571 -3.54689 -3.23672 -3.0826 -2.68742 -2.43381 -2.18024 -1.93077 -1.81375 -1.48425 -1.27108 -1.05776 -0.84431 -0.732368 -0.451709 -0.26471 -0.0776296 0.109529 0.215441 0.444463 0.60079 0.757168 0.913594 1.00685 1.19007 1.31439 1.43874 1.56312 1.6415 1.79611 1.8997 2.0033 2.10692 2.16641 2.31959 2.41664 2.51371 2.61079 2.65333 2.80176 2.891 2.98024 3.06949 3.08846 3.22689 3.29672 3.36654 3.43637 3.42656 3.55028 3.59948 3.64867 3.69785 3.66158 3.77674 3.81587 3.85498 3.89406 3.84196 3.95569 3.98943 4.02314 4.05438 3.99275 4.09472 4.11609 4.13751 4.15898 4.09835 4.18037 4.19169 4.20304 4.21442 4.14827 4.20804 4.20992 4.21184 4.2138 4.15263 4.19768 4.18958 4.18151 4.17346 4.10656 4.12533 4.10683 4.08837 4.06993 4.00791 4.01812 3.99332 3.96854 3.94379 3.87514 3.87056 3.84215 3.81377 3.7854 3.72677 3.72031 3.68953 3.65876 3.62802 3.56573 3.54633 3.51316 3.48001 3.44688 3.39532 3.3755 3.341 3.30651 3.27204 3.21709 3.18904 3.15354 3.11806 3.08259 3.0333 3.00863 2.97216 2.9357 2.89926 2.84855 2.81662 2.77967 2.74273 2.7058 2.661 2.63181 2.59579 2.55977 2.52378 2.47744 2.44876 2.41382 2.3789 2.34399 2.30227 2.27484 2.24079 2.20675 2.17273 2.13229 2.10536 2.07299 2.04062 2.00827 1.97267 1.94556 1.91515 1.88475 1.85436 1.81976 1.79555 1.76683 1.73812 1.70943 1.67717 1.65436 1.62763 1.6009 1.57419 1.54596 1.52384 1.49932 1.4748 1.4503 1.42423 1.40339 1.38053 1.35768 1.33484 1.30975 1.29209 1.27036 1.24864 1.22693 1.20268 1.18536 1.16497 1.14458 1.1242 1.10258 1.08806 1.06932 1.05059 1.03186 1.01197 0.996493 0.979341 0.962197 0.945059 0.928237 0.915563 0.899695 0.883834 0.86798 0.850033 0.837797 0.822939 0.808087 0.793241 0.77895 0.768526 0.754883 0.741245 0.727614 0.7129 0.702116 0.689805 0.677499 0.665199 0.652775 0.64587 0.63463 0.623395 0.612166 0.599105 0.591079 0.580752 0.57043 0.560112 0.550432 0.546232 0.537058 0.527888 0.518723 0.50851 0.502171 0.494358 0.486548 0.478743 0.472185 0.470533 0.46381 0.457092 0.450377 0.442009 0.438107 0.43213 0.426158 0.420188 0.41619 0.415624 0.41046 0.4053 0.400143 0.393889 0.390893 0.386458 0.382026 0.377597 0.374923 0.376235 0.372257 0.368281 0.364309 0.35885 0.357089 0.353516 0.349944 0.346376 0.344935 0.347222 0.344209 0.341198 0.338189 0.334144 0.333024 0.3306 0.328178 0.325758 0.325885 0.328666 0.326644 0.324625 0.322608 0.319303 0.31891 0.316972 0.315036 0.313102 0.313793 0.316849 0.315074 0.313302 0.31153 0.308807 0.308525 0.307083 0.305643 0.304204 0.305281 0.309024 0.307781 0.306539 0.305299 0.302956 0.303004 0.301752 0.300502 0.299253 0.300666 0.304535 0.303346 0.302158 0.300972 0.298946 0.299027 0.298106 0.297186 0.296267 0.298246 0.302475 0.301732 0.300989 0.300248 0.29858 0.298889 0.298113 0.297338 0.296564 0.298897 0.302913 0.30218 0.301447 0.300715 0.299247 0.299396 0.298679 0.297963 0.297248 0.299553 0.303371 0.302436 0.301502 0.300569 0.29885 0.298539 0.297323 0.296107 0.294892 0.296722 0.299931 0.298562 0.297194 0.295826 0.293817 0.29309 0.291625 0.290161 0.288697 0.290256 0.292868 0.291186 0.289505 0.287824 0.285478 0.284096 0.281956 0.279817 0.277679 0.278551 0.280235 0.2777 0.275166 0.272632 0.269541 0.267411 0.264651 0.261891 0.259131 0.259262 0.260118 0.257022 0.253926 0.250831 0.247174 0.244104 0.240404 0.236704 0.233005 0.231969 0.231368 0.227 0.222632 0.218264 0.213417 0.209054 0.204156 0.199259 0.194362 0.19203 0.189954 0.184435 0.178917 0.173398 0.167403 0.161592 0.155253 0.148913 0.142574 0.138557 0.134545 0.12744 0.120335 0.11323 0.105707 0.098337 0.0905086 0.0826804 0.0748533 0.0690269 0.0629259 0.0541851 0.045443 0.0367012 0.027548 0.0184563 0.00891917 -0.000617734 -0.0101499 -0.0181597 -0.0261343 -0.0362061 -0.0462823 -0.0563583 -0.0668023 -0.0760964 -0.0857812 -0.0954659 -0.105144 -0.113559 -0.120545 -0.13002 -0.139504 -0.148988 -0.158832 -0.164873 -0.171306 -0.177738 -0.184148 -0.187129 -0.189405 -0.197144 -0.204913 -0.212682 -0.220886 -0.18262 -0.144816 -0.107013 -0.0692141 -0.0326117 0.0213749 0.0741442 0.126914 0.179584 0.205884 0.231446 0.256288 0.28113 0.305973 0.34008 0.388968 0.436562 0.484156 0.531751 0.622313 0.407806 0.173899 -0.0600076 -0.293914 -0.528189 -0.584748 -0.641221 -0.697693 -0.754166 -0.801784 -0.861868 -0.922717 -0.983566 -1.04441 -1.03325 -1.09279 -1.15202 -1.21125 -1.27048 -1.31834 -0.856808 -0.395213 0.0663818 0.527977 0.942418 0.930557 0.918636 0.906714 0.894792 0.883517 0.79436 0.70518 0.616001 0.526821 0.440091 0.388946 0.337792 0.286637 0.235483 0.185609 0.157896 0.150734