# vtk DataFile Version 2.0
track0
ASCII
DATASET POLYDATA
POINTS 15175 float
-1.001 -0.05 0.0011
-1.00088 -0.05 0.0011
-1.00076 -0.05 0.00109999
-1.00064 -0.05 0.00109999
-1.00052 -0.05 0.00109999
-1.0004 -0.05 0.00109998
-0.975398 -0.05 0.00109925
-0.9504 -0.0499999 0.00109824
-0.925402 -0.0499999 0.00109723
-0.900404 -0.0499998 0.00109622
-0.875406 -0.0499998 0.00109521
-0.850407 -0.0499998 0.00109409
-0.825407 -0.0499996 0.00109261
-0.800408 -0.0499994 0.00109113
-0.775408 -0.0499993 0.00108965
-0.750409 -0.0499991 0.00108817
-0.737914 -0.049999 0.00108724
-0.72542 -0.0499988 0.00108571
-0.712925 -0.0499986 0.00108418
-0.700431 -0.0499984 0.00108266
-0.687936 -0.0499982 0.00108113
-0.675431 -0.0499982 0.00108006
-0.662926 -0.049998 0.00107837
-0.65042 -0.0499978 0.00107669
-0.637915 -0.0499976 0.001075
-0.62541 -0.0499973 0.00107332
-0.612898 -0.0499971 0.00107202
-0.600387 -0.0499968 0.00107009
-0.587876 -0.0499966 0.00106817
-0.575365 -0.0499963 0.00106625
-0.562854 -0.049996 0.00106434
-0.550338 -0.049996 0.00106278
-0.537822 -0.0499956 0.00106062
-0.525307 -0.0499953 0.00105847
-0.512791 -0.0499949 0.00105632
-0.500275 -0.0499945 0.00105417
-0.487751 -0.0499941 0.00105239
-0.475226 -0.0499936 0.00105008
-0.462701 -0.0499931 0.00104778
-0.450177 -0.0499926 0.00104548
-0.437652 -0.0499921 0.00104318
-0.42513 -0.0499922 0.00104125
-0.412607 -0.0499915 0.00103882
-0.400084 -0.0499908 0.00103639
-0.387562 -0.0499902 0.00103396
-0.375039 -0.0499895 0.00103154
-0.362534 -0.0499887 0.00102975
-0.350028 -0.0499879 0.00102811
-0.337522 -0.049987 0.00102648
-0.325017 -0.0499862 0.00102485
-0.312511 -0.0499854 0.00102323
-0.306259 -0.0499849 0.00102248
-0.300007 -0.0499839 0.00102117
-0.293755 -0.049983 0.00101987
-0.287503 -0.049982 0.00101858
-0.281251 -0.0499811 0.00101728
-0.275 -0.0499798 0.00101664
-0.26875 -0.0499787 0.00101565
-0.2625 -0.0499775 0.00101467
-0.25625 -0.0499764 0.00101368
-0.25 -0.0499752 0.0010127
-0.24375 -0.0499746 0.00101229
-0.2375 -0.0499732 0.00101158
-0.23125 -0.0499718 0.00101086
-0.225 -0.0499704 0.00101015
-0.21875 -0.0499691 0.00100943
-0.2125 -0.0499675 0.00100929
-0.20625 -0.0499658 0.00100892
-0.2 -0.0499641 0.00100854
-0.19375 -0.0499624 0.00100817
-0.1875 -0.0499607 0.0010078
-0.18125 -0.04996 0.00100803
-0.175 -0.049958 0.00100812
-0.16875 -0.049956 0.0010082
-0.1625 -0.049954 0.00100829
-0.15625 -0.049952 0.00100837
-0.153125 -0.0499508 0.00100855
-0.15 -0.0499486 0.00100882
-0.146875 -0.0499463 0.0010091
-0.14375 -0.0499441 0.00100937
-0.140625 -0.0499418 0.00100965
-0.1375 -0.0499398 0.00100992
-0.134374 -0.0499373 0.0010104
-0.131249 -0.0499347 0.00101088
-0.128124 -0.0499321 0.00101136
-0.124999 -0.0499295 0.00101184
-0.121874 -0.0499281 0.00101224
-0.118749 -0.0499252 0.00101289
-0.115624 -0.0499224 0.00101354
-0.112499 -0.0499195 0.00101419
-0.109374 -0.0499166 0.00101484
-0.106249 -0.0499144 0.00101538
-0.103124 -0.0499113 0.00101615
-0.0999989 -0.0499082 0.00101693
-0.0968739 -0.0499051 0.00101771
-0.0937488 -0.0499019 0.00101849
-0.0906239 -0.0499003 0.00101912
-0.0874989 -0.049897 0.00102001
-0.0843739 -0.0498937 0.0010209
-0.0812489 -0.0498903 0.0010218
-0.0781239 -0.049887 0.00102269
-0.0749989 -0.0498845 0.00102345
-0.0718739 -0.049881 0.00102445
-0.0687489 -0.0498774 0.00102546
-0.0656238 -0.0498738 0.00102646
-0.0624988 -0.0498702 0.00102747
-0.0593738 -0.0498685 0.00102831
-0.0562488 -0.0498647 0.00102942
-0.0531238 -0.0498609 0.00103053
-0.0499988 -0.0498571 0.00103164
-0.0468738 -0.0498533 0.00103276
-0.0437488 -0.0498506 0.00103372
-0.0406238 -0.0498466 0.00103493
-0.0374988 -0.0498425 0.00103615
-0.0343738 -0.0498385 0.00103737
-0.0312488 -0.0498345 0.00103859
-0.0281239 -0.0498325 0.00103964
-0.0249989 -0.0498283 0.00104095
-0.0218739 -0.049824 0.00104227
-0.018749 -0.0498198 0.00104359
-0.015624 -0.0498155 0.00104492
-0.012499 -0.0498126 0.00104607
-0.00937393 -0.0498081 0.00104749
-0.00624889 -0.0498036 0.00104891
-0.00312386 -0.0497991 0.00105033
1.18324e-06 -0.0497946 0.00105175
0.00312621 -0.0497925 0.00105299
0.00625124 -0.0497878 0.0010545
0.00937627 -0.0497831 0.00105601
0.0125013 -0.0497784 0.00105752
0.0156263 -0.0497737 0.00105904
0.0187516 -0.0497705 0.00106038
0.0218768 -0.0497655 0.00106199
0.025002 -0.0497606 0.00106359
0.0281273 -0.0497557 0.0010652
0.0312525 -0.0497507 0.00106681
0.0343793 -0.0497484 0.00106823
0.037506 -0.0497432 0.00106992
0.0406327 -0.0497381 0.00107161
0.0437595 -0.0497329 0.00107331
0.0468862 -0.0497278 0.00107501
0.050011 -0.0497243 0.00107653
0.0531358 -0.0497189 0.0010783
0.0562606 -0.0497136 0.00108008
0.0593853 -0.0497082 0.00108186
0.0625101 -0.0497028 0.00108364
0.065635 -0.0497003 0.00108523
0.0687598 -0.0496947 0.00108709
0.0718846 -0.0496891 0.00108895
0.0750094 -0.0496835 0.00109081
0.0781342 -0.0496779 0.00109268
0.0812601 -0.0496742 0.00109436
0.084386 -0.0496684 0.00109629
0.0875119 -0.0496625 0.00109823
0.0906377 -0.0496567 0.00110017
0.0937636 -0.0496509 0.00110212
0.0968915 -0.0496482 0.00110386
0.100019 -0.0496421 0.00110587
0.103147 -0.0496361 0.00110788
0.106275 -0.04963 0.0011099
0.109403 -0.049624 0.00111192
0.112529 -0.04962 0.00111374
0.115655 -0.0496138 0.00111582
0.118781 -0.0496076 0.0011179
0.121907 -0.0496013 0.00111999
0.125032 -0.049595 0.00112208
0.128157 -0.0495922 0.00112396
0.131283 -0.0495857 0.0011261
0.134408 -0.0495793 0.00112825
0.137533 -0.0495728 0.0011304
0.140658 -0.0495663 0.00113255
0.143784 -0.0495621 0.00113449
0.146909 -0.0495555 0.0011367
0.150035 -0.0495488 0.00113891
0.153161 -0.0495422 0.00114112
0.156287 -0.0495355 0.00114334
0.159413 -0.0495324 0.00114533
0.16254 -0.0495256 0.00114759
0.165667 -0.0495187 0.00114986
0.168794 -0.0495118 0.00115213
0.171921 -0.0495049 0.0011544
0.175047 -0.0495005 0.00115645
0.178172 -0.0494935 0.00115876
0.181298 -0.0494864 0.00116108
0.184424 -0.0494793 0.0011634
0.18755 -0.0494722 0.00116573
0.190674 -0.049469 0.00116782
0.193799 -0.0494618 0.00117018
0.196923 -0.0494545 0.00117254
0.200048 -0.0494473 0.00117491
0.203172 -0.04944 0.00117728
0.206296 -0.0494354 0.00117941
0.209421 -0.0494279 0.00118181
0.212545 -0.0494205 0.00118421
0.215669 -0.0494131 0.00118662
0.218794 -0.0494056 0.00118904
0.221919 -0.0494022 0.0011912
0.225045 -0.0493946 0.00119364
0.22817 -0.049387 0.00119609
0.231296 -0.0493794 0.00119853
0.234421 -0.0493718 0.00120099
0.237548 -0.0493669 0.00120318
0.240674 -0.0493592 0.00120565
0.2438 -0.0493514 0.00120813
0.246927 -0.0493436 0.00121062
0.250053 -0.0493358 0.0012131
0.25318 -0.0493323 0.00121533
0.256307 -0.0493243 0.00121784
0.259434 -0.0493164 0.00122035
0.262561 -0.0493084 0.00122286
0.265688 -0.0493004 0.00122538
0.268813 -0.0492954 0.00122763
0.271938 -0.0492873 0.00123015
0.275062 -0.0492792 0.00123269
0.278187 -0.0492711 0.00123522
0.281312 -0.049263 0.00123777
0.284435 -0.0492593 0.00124004
0.287558 -0.0492511 0.00124259
0.290681 -0.0492429 0.00124514
0.293804 -0.0492346 0.00124769
0.296927 -0.0492264 0.00125025
0.30005 -0.0492212 0.00125253
0.303174 -0.0492128 0.00125509
0.306297 -0.0492045 0.00125766
0.309421 -0.0491961 0.00126023
0.312544 -0.0491877 0.0012628
0.315668 -0.0491839 0.0012651
0.318793 -0.0491755 0.00126767
0.321917 -0.049167 0.00127025
0.325041 -0.0491585 0.00127283
0.328166 -0.0491499 0.00127542
0.331291 -0.0491446 0.00127772
0.334416 -0.049136 0.0012803
0.337541 -0.0491274 0.00128288
0.340666 -0.0491187 0.00128547
0.343791 -0.0491101 0.00128807
0.346916 -0.0491063 0.00129039
0.350042 -0.0490975 0.00129297
0.353168 -0.0490888 0.00129557
0.356294 -0.04908 0.00129816
0.35942 -0.0490713 0.00130077
0.362549 -0.0490658 0.00130307
0.365679 -0.049057 0.00130566
0.368808 -0.0490481 0.00130826
0.371938 -0.0490392 0.00131086
0.375068 -0.0490304 0.00131347
0.378205 -0.0490264 0.0013158
0.381343 -0.0490175 0.0013184
0.384481 -0.0490085 0.001321
0.387619 -0.0489995 0.00132361
0.390756 -0.0489905 0.00132623
0.393889 -0.0489849 0.00132853
0.397022 -0.0489759 0.00133112
0.400155 -0.0489669 0.00133372
0.403288 -0.0489578 0.00133632
0.406421 -0.0489488 0.00133892
0.409551 -0.0489448 0.00134123
0.412682 -0.0489357 0.00134382
0.415813 -0.0489266 0.0013464
0.418943 -0.0489175 0.001349
0.422074 -0.0489083 0.0013516
0.425204 -0.0489026 0.00135388
0.428334 -0.0488935 0.00135646
0.431464 -0.0488843 0.00135904
0.434594 -0.0488751 0.00136162
0.437724 -0.0488659 0.00136421
0.440854 -0.0488618 0.00136651
0.443984 -0.0488526 0.00136907
0.447114 -0.0488433 0.00137164
0.450244 -0.048834 0.00137422
0.453374 -0.0488247 0.0013768
0.456504 -0.048819 0.00137906
0.459634 -0.0488097 0.00138162
0.462763 -0.0488004 0.00138418
0.465893 -0.048791 0.00138674
0.469023 -0.0487817 0.00138931
0.472152 -0.0487776 0.00139158
0.475282 -0.0487682 0.00139412
0.478411 -0.0487588 0.00139666
0.481541 -0.0487494 0.00139921
0.48467 -0.04874 0.00140177
0.4878 -0.0487342 0.001404
0.490929 -0.0487248 0.00140652
0.494058 -0.0487154 0.00140905
0.497187 -0.0487059 0.00141158
0.500317 -0.0486965 0.00141412
0.503446 -0.0486923 0.00141635
0.506575 -0.0486829 0.00141886
0.509704 -0.0486734 0.00142137
0.512833 -0.0486639 0.00142389
0.515962 -0.0486544 0.00142641
0.519091 -0.0486485 0.0014286
0.52222 -0.0486391 0.00143109
0.525348 -0.0486296 0.00143358
0.528477 -0.04862 0.00143607
0.531606 -0.0486105 0.00143857
0.534734 -0.0486063 0.00144077
0.537863 -0.0485968 0.00144324
0.540992 -0.0485873 0.00144571
0.54412 -0.0485778 0.00144818
0.547249 -0.0485682 0.00145066
0.550377 -0.0485623 0.00145281
0.553506 -0.0485527 0.00145525
0.556634 -0.0485432 0.0014577
0.559762 -0.0485336 0.00146015
0.562891 -0.048524 0.00146261
0.566019 -0.0485198 0.00146476
0.569147 -0.0485103 0.00146718
0.572275 -0.0485007 0.0014696
0.575403 -0.0484912 0.00147203
0.578532 -0.0484816 0.00147446
0.58166 -0.0484756 0.00147657
0.584788 -0.0484661 0.00147896
0.587915 -0.0484565 0.00148136
0.591043 -0.0484469 0.00148376
0.594171 -0.0484373 0.00148617
0.597299 -0.0484331 0.00148828
0.600427 -0.0484235 0.00149066
0.603555 -0.048414 0.00149304
0.606683 -0.0484044 0.00149542
[...]
POINT_DATA 15175
 FIELD attributes 1
U 3 15175 float
25.0027 	2.24138e-05 	-0.000701352 25.0025 	2.18138e-05 	-0.000708269 25.0023 	2.12139e-05 	-0.000715187 25.0022 	2.0614e-05 	-0.000722104 25.002 	2.00141e-05 	-0.000729022 25.0019 	1.94142e-05 	-0.000735939 25.0046 	5.65383e-05 	-0.00100991 25.0046 	5.64864e-05 	-0.00100899 25.0046 	5.64345e-05 	-0.00100806 25.0046 	5.63826e-05 	-0.00100713 25.0028 	-1.30062e-06 	-0.00112255 25.0075 	0.000162949 	-0.001483 25.0075 	0.000162729 	-0.00148099 25.0075 	0.000162508 	-0.00147898 25.0074 	0.000162288 	-0.00147698 25.0093 	0.000223741 	-0.00186139 25.0184 	0.000381468 	-0.00306547 25.0184 	0.000380931 	-0.00306115 25.0184 	0.000380395 	-0.00305684 25.0183 	0.000379859 	-0.00305253 25.0109 	-3.10868e-05 	-0.00214815 25.0235 	0.000457495 	-0.00337725 25.0235 	0.00045678 	-0.00337197 25.0234 	0.000456066 	-0.0033667 25.0234 	0.000455353 	-0.00336144 25.0135 	0.000408483 	-0.0026094 25.0295 	0.000580073 	-0.00385026 25.0294 	0.000579031 	-0.00384335 25.0294 	0.000577992 	-0.00383645 25.0293 	0.000576954 	-0.00382956 25.0167 	-7.75455e-05 	-0.00311998 25.0367 	0.000762026 	-0.00431885 25.0366 	0.000760478 	-0.00431008 25.0365 	0.000758933 	-0.00430132 25.0364 	0.000757391 	-0.00429259 25.0204 	0.000832905 	-0.00355997 25.0449 	0.00100531 	-0.00461637 25.0448 	0.00100311 	-0.00460625 25.0447 	0.00100091 	-0.00459614 25.0446 	0.00099871 	-0.00458606 25.0251 	-0.000171679 	-0.00385502 25.0552 	0.00133973 	-0.00487678 25.055 	0.0013366 	-0.00486536 25.0549 	0.00133347 	-0.00485397 25.0548 	0.00133035 	-0.00484261 25.0302 	0.00158759 	-0.00359048 25.0652 	0.0016702 	-0.00327395 25.0651 	0.00166755 	-0.00326876 25.065 	0.00166491 	-0.00326357 25.0649 	0.00166227 	-0.0032584 25.071 	0.0019749 	-0.00300825 25.1403 	0.00385652 	-0.00523626 25.1401 	0.00385161 	-0.00522959 25.1399 	0.00384671 	-0.00522293 25.1397 	0.00384181 	-0.00521628 25.0742 	0.00490813 	-0.00256902 25.1503 	0.00462192 	-0.00396879 25.1502 	0.00461744 	-0.00396494 25.15 	0.00461296 	-0.00396109 25.1499 	0.00460849 	-0.00395725 25.0794 	0.00240954 	-0.00163047 25.1586 	0.00562808 	-0.00288024 25.1585 	0.0056241 	-0.0028782 25.1584 	0.00562013 	-0.00287617 25.1582 	0.00561616 	-0.00287414 25.0829 	0.00637207 	-0.000586811 25.1658 	0.00678664 	-0.0014951 25.1657 	0.00678415 	-0.00149455 25.1657 	0.00678165 	-0.001494 25.1656 	0.00677916 	-0.00149345 25.087 	0.00305516 	0.000911392 25.1706 	0.00801456 	0.000346131 25.1706 	0.00801524 	0.00034616 25.1706 	0.00801592 	0.00034619 25.1706 	0.00801661 	0.000346219 25.1734 	0.00932571 	0.00141748 25.3456 	0.0183243 	0.00222162 25.3457 	0.0183293 	0.00222222 25.3458 	0.0183343 	0.00222282 25.3459 	0.0183393 	0.00222343 25.1747 	0.0158008 	0.00225368 25.3509 	0.020936 	0.00388478 25.3511 	0.0209459 	0.00388662 25.3512 	0.0209558 	0.00388846 25.3514 	0.0209658 	0.00389031 25.1778 	0.0113235 	0.00323227 25.3545 	0.0233018 	0.0052613 25.3547 	0.0233167 	0.00526467 25.355 	0.0233316 	0.00526804 25.3552 	0.0233466 	0.00527142 25.1784 	0.0177371 	0.00433937 25.357 	0.0252468 	0.0062969 25.3573 	0.0252661 	0.00630171 25.3576 	0.0252854 	0.00630653 25.3579 	0.0253047 	0.00631135 25.1803 	0.0129824 	0.00508074 25.3581 	0.0271102 	0.00724813 25.3584 	0.027134 	0.00725448 25.3587 	0.0271577 	0.00726084 25.359 	0.0271815 	0.0072672 25.1798 	0.0196211 	0.00609495 25.3582 	0.0289115 	0.00813331 25.3586 	0.0289398 	0.00814127 25.3589 	0.0289682 	0.00814925 25.3593 	0.0289966 	0.00815723 25.1808 	0.0144461 	0.00677441 25.3579 	0.0307533 	0.00901435 25.3583 	0.0307866 	0.00902409 25.3587 	0.0308198 	0.00903384 25.3591 	0.0308531 	0.0090436 25.1799 	0.0216106 	0.00774829 25.3568 	0.0325952 	0.00986804 25.3572 	0.0326335 	0.00987965 25.3576 	0.0326719 	0.00989127 25.3581 	0.0327104 	0.00990291 25.18 	0.0159284 	0.00841455 25.3548 	0.0344389 	0.0106891 25.3553 	0.0344826 	0.0107026 25.3557 	0.0345263 	0.0107162 25.3562 	0.03457 	0.0107298 25.1782 	0.0236472 	0.00933109 25.352 	0.0362907 	0.0114848 25.3525 	0.0363398 	0.0115004 25.3529 	0.0363889 	0.0115159 25.3534 	0.0364382 	0.0115315 25.1775 	0.0174109 	0.00998013 25.3483 	0.0380946 	0.0122516 25.3488 	0.0381492 	0.0122691 25.3493 	0.0382039 	0.0122867 25.3498 	0.0382587 	0.0123044 25.1748 	0.0256756 	0.0108238 25.3437 	0.0399073 	0.0129895 25.3442 	0.0399676 	0.0130091 25.3447 	0.040028 	0.0130287 25.3453 	0.0400884 	0.0130484 25.1733 	0.0188813 	0.011454 25.3386 	0.0417211 	0.0137052 25.3391 	0.0417872 	0.0137269 25.3397 	0.0418533 	0.0137487 25.3402 	0.0419196 	0.0137704 25.17 	0.0277222 	0.0122187 25.3328 	0.0435077 	0.0143921 25.3334 	0.0435795 	0.0144158 25.3339 	0.0436513 	0.0144396 25.3345 	0.0437233 	0.0144634 25.1676 	0.0203125 	0.0128014 25.3263 	0.0452931 	0.0150481 25.3268 	0.0453706 	0.0150739 25.3274 	0.0454482 	0.0150997 25.328 	0.0455259 	0.0151255 25.1639 	0.0297593 	0.0134906 25.3192 	0.0470637 	0.0156744 25.3198 	0.0471469 	0.0157021 25.3203 	0.0472302 	0.0157299 25.3209 	0.0473138 	0.0157577 25.1607 	0.0217409 	0.0140231 25.3117 	0.0487861 	0.0162721 25.3123 	0.0488749 	0.0163018 25.3128 	0.048964 	0.0163315 25.3134 	0.0490532 	0.0163612 25.1566 	0.0317426 	0.0146246 25.3035 	0.0504725 	0.0168301 25.3041 	0.0505668 	0.0168615 25.3047 	0.0506612 	0.016893 25.3052 	0.0507557 	0.0169245 25.1526 	0.0231133 	0.0151038 25.2947 	0.0521302 	0.0173461 25.2953 	0.0522296 	0.0173792 25.2959 	0.0523292 	0.0174123 25.2964 	0.0524289 	0.0174455 25.148 	0.0336422 	0.015602 25.2856 	0.0537687 	0.0178304 25.2862 	0.0538732 	0.017865 25.2868 	0.0539779 	0.0178997 25.2873 	0.0540827 	0.0179345 25.1436 	0.0244551 	0.0160353 25.2763 	0.0554118 	0.0182834 25.2768 	0.0555212 	0.0183195 25.2774 	0.0556309 	0.0183556 25.2779 	0.0557407 	0.0183919 25.1388 	0.0355366 	0.0164365 25.2666 	0.0569991 	0.0186976 25.2671 	0.0571131 	0.018735 25.2677 	0.0572273 	0.0187725 25.2682 	0.0573418 	0.0188101 25.1339 	0.0257608 	0.0168181 25.2564 	0.0584979 	0.0190663 25.2569 	0.058616 	0.0191048 25.2574 	0.0587344 	0.0191434 25.2579 	0.058853 	0.019182 25.1286 	0.0372696 	0.0171106 25.2458 	0.0599299 	0.0193899 25.2463 	0.0600518 	0.0194294 25.2468 	0.060174 	0.0194689 25.2473 	0.0602964 	0.0195085 25.1233 	0.0269316 	0.0174344 25.2352 	0.0613225 	0.0196848 25.2357 	0.061448 	0.0197251 25.2362 	0.0615737 	0.0197654 25.2367 	0.0616998 	0.0198059 25.118 	0.0388791 	0.0176359 25.2246 	0.0626752 	0.0199511 25.225 	0.0628041 	0.0199921 25.2255 	0.0629331 	0.0200332 25.226 	0.0630625 	0.0200744 25.1127 	0.0280586 	0.0179173 25.2139 	0.0639839 	0.0201902 25.2144 	0.0641158 	0.0202318 25.2148 	0.0642478 	0.0202735 25.2153 	0.0643802 	0.0203152 25.1073 	0.0404238 	0.0180402 25.203 	0.0652008 	0.0203873 25.2035 	0.065335 	0.0204293 25.2039 	0.0654695 	0.0204714 25.2043 	0.0656044 	0.0205135 25.1018 	0.029088 	0.0182803 25.1918 	0.0663031 	0.0205307 25.1922 	0.0664392 	0.0205728 25.1926 	0.0665755 	0.0206151 25.193 	0.0667122 	0.0206574 25.0961 	0.0417083 	0.0182938 25.1805 	0.0673284 	0.020637 25.1809 	0.067466 	0.0206792 25.1813 	0.0676038 	0.0207214 25.1816 	0.067742 	0.0207638 25.0904 	0.029924 	0.0184791 25.1694 	0.0683078 	0.0207176 25.1698 	0.0684466 	0.0207597 25.1701 	0.0685858 	0.0208019 25.1705 	0.0687252 	0.0208442 25.0849 	0.0428518 	0.0184258 25.1585 	0.0692467 	0.0207769 25.1588 	0.0693866 	0.0208189 25.1592 	0.0695267 	0.020861 25.1595 	0.0696672 	0.0209031 25.0794 	0.0307116 	0.0185807 25.1478 	0.0701369 	0.0208149 25.1481 	0.0702775 	0.0208566 25.1484 	0.0704184 	0.0208984 25.1487 	0.0705596 	0.0209403 25.0741 	0.0439031 	0.0184619 25.1372 	0.0709614 	0.0208293 25.1375 	0.0711026 	0.0208707 25.1378 	0.0712441 	0.0209123 25.1381 	0.0713859 	0.0209539 25.0687 	0.0314195 	0.0185937 25.1267 	0.0716436 	0.0208146 25.127 	0.0717851 	0.0208557 25.1272 	0.0719269 	0.0208969 25.1275 	0.072069 	0.0209382 25.0635 	0.0447195 	0.0184035 25.1164 	0.0722742 	0.0207687 25.1166 	0.0724152 	0.0208092 25.1169 	0.0725564 	0.0208498 25.1171 	0.0726979 	0.0208905 25.0583 	0.0319556 	0.0184987 25.1065 	0.072909 	0.0207187 25.1067 	0.0730495 	0.0207586 25.1069 	0.0731902 	0.0207986 25.1071 	0.0733312 	0.0208386 25.0535 	0.0454877 	0.0182761 25.0968 	0.0735049 	0.0206546 25.097 	0.0736448 	0.0206939 25.0972 	0.0737849 	0.0207333 25.0973 	0.0739253 	0.0207728 25.0485 	0.0324722 	0.0183504 25.0874 	0.0740442 	0.0205718 25.0875 	0.0741832 	0.0206104 25.0877 	0.0743226 	0.0206491 25.0879 	0.0744622 	0.0206879 25.0439 	0.0461637 	0.0180898 25.0782 	0.0745227 	0.0204693 25.0783 	0.0746607 	0.0205072 25.0785 	0.074799 	0.0205452 25.0786 	0.0749376 	0.0205833 25.0392 	0.0328915 	0.018137 25.0693 	0.0749457 	0.0203503 25.0694 	0.0750825 	0.0203875 25.0696 	0.0752196 	0.0204247 25.0697 	0.0753569 	0.020462 25.0349 	0.0467069 	0.0178453 25.0607 	0.0753164 	0.0202153 25.0608 	0.0754518 	0.0202517 25.0609 	0.0755874 	0.0202881 25.061 	0.0757233 	0.0203245 25.0304 	0.0332172 	0.0178694 25.0524 	0.0756321 	0.0200677 25.0525 	0.0757659 	0.0201032 25.0526 	0.0759 	0.0201388 25.0527 	0.0760343 	0.0201744 25.0265 	0.0471274 	0.0175554 25.0444 	0.0758924 	0.0199059 25.0445 	0.0760245 	0.0199406 25.0446 	0.0761568 	0.0199753 25.0446 	0.0762894 	0.0200101 25.0222 	0.0334529 	0.017558 25.0367 	0.0761023 	0.0197317 25.0368 	0.0762325 	0.0197655 25.0369 	0.076363 	0.0197993 25.0369 	0.0764937 	0.0198332 25.0187 	0.0474197 	0.0172276 25.0294 	0.0762592 	0.0195439 25.0294 	0.0763874 	0.0195768 25.0295 	0.0765158 	0.0196097 25.0295 	0.0766445 	0.0196427 25.0147 	0.0336015 	0.0172124 25.0224 	0.0763644 	0.0193478 25.0224 	0.0764905 	0.0193798 25.0225 	0.0766168 	0.0194118 25.0225 	0.0767433 	0.0194438 25.0115 	0.0475911 	0.0168758 25.0157 	0.0763952 	0.0191438 25.0157 	0.076519 	0.0191748 25.0157 	0.076643 	0.0192059 25.0158 	0.0767673 	0.0192371 25.0078 	0.0336497 	0.0168821 25.0097 	0.0763937 	0.0190026 25.0097 	0.0765157 	0.0190329 25.0097 	0.0766379 	0.0190633 25.0097 	0.0767603 	0.0190938 25.0049 	0.0476522 	0.0165891 25.0031 	0.0763726 	0.018896 25.0031 	0.0764929 	0.0189258 25.0031 	0.0766135 	0.0189556 25.0031 	0.0767342 	0.0189855 25.0014 	0.0336609 	0.016629 24.9972 	0.0763647 	0.0188009 24.9972 	0.0764835 	0.0188302 24.9972 	0.0766026 	0.0188595 24.9972 	0.0767218 	0.0188888 24.9988 	0.0476452 	0.0163396 24.9912 	0.0762691 	0.0186554 24.9911 	0.0763861 	0.018684 24.9911 	0.0765032 	0.0187127 24.9911 	0.0766204 	0.0187414 24.9955 	0.033622 	0.0163572 24.986 	0.0761773 	0.0185582 24.9859 	0.0762926 	0.0185863 24.9859 	0.0764081 	0.0186145 24.9859 	0.0765238 	0.0186426 24.9932 	0.0475748 	0.0160888 24.98 	0.0760871 	0.0184882 24.9799 	0.0762011 	0.0185159 24.9799 	0.0763152 	0.0185436 24.9799 	0.0764294 	0.0185714 24.9901 	0.0335549 	0.0160931 24.9748 	0.0759841 	0.0183322 24.9747 	0.0760961 	0.0183593 24.9747 	0.0762083 	0.0183863 24.9747 	0.0763206 	0.0184134 24.9881 	0.0474724 	0.0157791 24.97 	0.0758299 	0.0181035 24.9699 	0.0759395 	0.0181297 24.9699 	0.0760493 	0.0181559 24.9698 	0.0761592 	0.0181821 24.9853 	0.0334421 	0.015702 24.9654 	0.0756344 	0.0178666 24.9653 	0.0757416 	0.017892 24.9653 	0.0758489 	0.0179173 24.9653 	0.0758239 	0.017936 24.9836 	0.0471536 	0.0153888 24.9614 	0.0748289 	0.0176084 24.9615 	0.074667 	0.0176177 24.9615 	0.0745056 	0.0176271 24.9616 	0.0743448 	0.0176365 24.981 	0.0332764 	0.0153197 24.9581 	0.0734206 	0.017346 24.9582 	0.0732643 	0.0173567 24.9583 	0.0731085 	0.0173675 24.9584 	0.0729533 	0.0173783 24.9796 	0.0461317 	0.0150439 24.9551 	0.0719668 	0.017069 24.9552 	0.0718124 	0.0170777 24.9553 	0.0716585 	0.0170865 24.9553 	0.0715051 	0.0170954 24.9772 	0.0330809 	0.0149757 24.9526 	0.0706222 	0.0168441 24.9527 	0.0704733 	0.0168542 24.9528 	0.070325 	0.0168642 24.9529 	0.0701771 	0.0168743 24.976 	0.0451195 	0.0147293 24.9501 	0.0692025 	0.0165752 24.9502 	0.0690557 	0.0165834 24.9503 	0.0689093 	0.0165917 24.9504 	0.0687634 	0.0166001 24.9739 	0.0328623 	0.0146569 24.9482 	0.0679256 	0.0163805 24.9483 	0.0677842 	0.01639 24.9484 	0.0676432 	0.0163994 24.9485 	0.0675027 	0.0164089 24.9729 	0.0441264 	0.014439 24.9461 	0.0665281 	0.0161166 24.9462 	0.0663886 	0.0161245 24.9463 	0.0662496 	0.0161324 24.9464 	0.0661111 	0.0161403 24.9711 	0.0326202 	0.0143584 24.9448 	0.0652712 	0.0159415 24.9449 	0.0650946 	0.0159484 24.9451 	0.0649186 	0.0159553 24.9452 	0.0647432 	0.0159622 24.9702 	0.0430633 	0.0141621 24.9433 	0.0637281 	0.0156712 24.9435 	0.0635555 	0.0156766 24.9436 	0.0633834 	0.015682 24.9437 	0.0632118 	0.0156874 24.9686 	0.0323615 	0.0140752 24.9425 	0.0624048 	0.015514 24.9427 	0.0622396 	0.0155206 24.9428 	0.0620749 	0.0155273 24.9429 	0.0619106 	0.0155341 24.9679 	0.0419815 	0.0139022 24.9414 	0.0609308 	0.0152485 24.9416 	0.0607692 	0.0152538 24.9417 	0.0606082 	0.0152591 24.9418 	0.0604476 	0.0152644 24.9664 	0.0320975 	0.0138065 24.941 	0.0597021 	0.0151145 24.9411 	0.0595444 	0.0151208 24.9413 	0.0593871 	0.0151271 24.9414 	0.0592303 	0.0151335 24.9659 	0.0409513 	0.0136535 24.9403 	0.058281 	0.0148445 24.9404 	0.0581299 	0.0148497 24.9405 	0.0579792 	0.0148549 24.9407 	0.0578289 	0.0148602 24.9646 	0.0318339 	0.0135446 24.9401 	0.0571173 	0.0147401 24.9402 	0.0569636 	0.0147459 24.9404 	0.0568103 	0.0147517 24.9405 	0.0566574 	0.0147575 24.9642 	0.0399815 	0.0133986 24.9398 	0.0557113 	0.0143997 24.94 	0.055505 	0.014402 24.9402 	0.0552992 	0.0144042 24.9404 	0.0550941 	0.0144066 24.9631 	0.0316056 	0.0132824 24.9403 	0.0542002 	0.0145539 24.9406 	0.0539379 	0.0145513 24.9408 	0.0536764 	0.0145488 24.9411 	0.0534155 	0.0145464 24.9628 	0.0388254 	0.0131195 24.9408 	0.0526809 	0.0130506 24.9413 	0.0521986 	0.0130606 24.9418 	0.0517177 	0.0130705 24.9422 	0.0512382 	0.0130805 24.962 	0.0314602 	0.0130068 24.9617 	0.0310605 	0.0127369 24.9616 	0.0311169 	0.0127601 24.9616 	0.0311735 	0.0127833 24.9615 	0.0312302 	0.0128065 24.9838 	0.0239535 	0.0133578 24.9609 	0.0309979 	0.0123067 24.9608 	0.0310517 	0.012328 24.9607 	0.0311056 	0.0123495 24.9607 	0.0311596 	0.0123709 24.9829 	0.00988069 	0.0129603 24.9603 	0.030403 	0.0125105 24.9602 	0.0304562 	0.0125324 24.9602 	0.0305095 	0.0125543 24.9601 	0.0305629 	0.0125763 24.983 	0.0237484 	0.0128211 24.9593 	0.0320057 	0.00977848 24.9593 	0.0320492 	0.00979175 24.9592 	0.0320927 	0.00980505 24.9592 	0.0321363 	0.00981836 24.9824 	0.00980407 	0.0124383 24.982 	0.00955305 	0.0120756 24.982 	0.00958476 	0.0121157 24.9819 	0.00961659 	0.0121559 24.9818 	0.00964851 	0.0121963 24.9929 	-0.00218811 	0.0137034 24.9814 	0.00939749 	0.0118146 24.9814 	0.00942749 	0.0118523 24.9813 	0.0094576 	0.0118902 24.9813 	0.00948779 	0.0119281 24.9927 	0.0124529 	0.0133491 24.9811 	0.00928628 	0.0116505 24.9811 	0.00931504 	0.0116866 24.981 	0.00934389 	0.0117228 24.9809 	0.00937283 	0.0117591 24.9925 	-0.00213631 	0.0132711 24.9811 	0.00903381 	0.011223 24.981 	0.00906034 	0.0112559 24.981 	0.00908694 	0.011289 24.9809 	0.00911363 	0.0113222 24.9926 	0.0123751 	0.0130002 24.9814 	0.00953561 	0.0115159 24.9814 	0.00956391 	0.0115501 24.9813 	0.0095923 	0.0115844 24.9813 	0.00962077 	0.0116187 24.9926 	-0.00213219 	0.0128971 24.9817 	0.00690085 	0.00903251 24.9817 	0.00691668 	0.00905322 24.9817 	0.00693254 	0.00907398 24.9816 	0.00694844 	0.00909479 24.9928 	0.0124332 	0.0127453 24.9929 	0.0123668 	0.0125591 24.9928 	0.0124444 	0.0126379 24.9928 	0.0125226 	0.0127173 24.9927 	0.0126012 	0.0127971 24.9968 	-0.00117534 	0.0138666 24.9927 	0.0122557 	0.0122239 24.9927 	0.0123282 	0.0122962 24.9926 	0.0124011 	0.0123689 24.9926 	0.0124745 	0.0124421 24.997 	0.0147316 	0.0126923 24.9932 	0.0129866 	0.0126724 24.9932 	0.013064 	0.012748 24.9931 	0.0131419 	0.012824 24.9931 	0.0132202 	0.0129004 24.9972 	-0.00120665 	0.0136561 24.9945 	0.0103208 	0.0105939 24.9945 	0.0103707 	0.0106451 24.9944 	0.0104208 	0.0106965 24.9944 	0.0104712 	0.0107483 24.9976 	0.0155577 	0.0127036 24.9982 	0.0164807 	0.0125927 24.9982 	0.0166644 	0.012733 24.9981 	0.0168501 	0.012875 24.9981 	0.0170379 	0.0130185 24.9983 	-0.000860592 	0.0151388 24.9977 	0.0176065 	0.0124984 24.9976 	0.0177905 	0.012629 24.9976 	0.0179764 	0.012761 24.9976 	0.0181642 	0.0128943 24.998 	0.0189745 	0.00966656 24.9976 	0.0186364 	0.0117976 24.9975 	0.0188113 	0.0119084 24.9975 	0.018988 	0.0120202 24.9975 	0.0191663 	0.012133 24.9981 	-0.000970917 	0.01468 24.999 	0.0161224 	0.00932631 24.999 	0.0162364 	0.00939224 24.999 	0.0163512 	0.00945865 24.999 	0.0164668 	0.00952552 24.9987 	0.0192775 	0.00933186 24.9994 	0.0195601 	0.00897333 24.9994 	0.0198153 	0.00909041 24.9994 	0.0200738 	0.00920901 24.9994 	0.0203357 	0.00932916 24.995 	-0.000184939 	0.00920463 24.9989 	0.0206139 	0.00862728 24.9989 	0.0208563 	0.00872875 24.9989 	0.0211016 	0.00883141 24.9989 	0.0213498 	0.00893527 24.9975 	0.00767408 	0.002468 24.9985 	0.02117 	0.00841053 24.9985 	0.0214009 	0.00850226 24.9984 	0.0216343 	0.00859499 24.9984 	0.0218702 	0.00868874 24.9952 	-0.000261132 	0.00929665 24.9985 	0.0219801 	0.00942001 24.9985 	0.0222342 	0.00952894 24.9984 	0.0224913 	0.00963913 24.9984 	0.0227514 	0.00975059 24.9973 	0.00789098 	0.00288934 24.9972 	0.00765428 	0.00312048 24.9972 	0.00770991 	0.00314316 24.9971 	0.00776595 	0.003166 24.9971 	0.00782239 	0.00318901 24.9986 	-8.50491e-06 	0.00185622 24.9973 	0.00718057 	0.00348299 24.9973 	0.00723692 	0.00351032 24.9973 	0.00729371 	0.00353787 24.9973 	0.00735095 	0.00356564 24.9986 	-1.36288e-05 	0.0019811 24.9974 	0.00703452 	0.00363883 24.9974 	0.00709018 	0.00366762 24.9974 	0.00714627 	0.00369664 24.9974 	0.00720282 	0.00372589 24.9986 	-1.5696e-05 	0.00203906 24.9974 	0.00698992 	0.00372192 24.9974 	0.0070445 	0.00375099 24.9974 	0.0070995 	0.00378027 24.9974 	0.00715493 	0.00380979 24.9985 	-1.72132e-05 	0.00208165 24.9974 	0.00697334 	0.00377677 24.9974 	0.00702667 	0.00380566 24.9974 	0.00708041 	0.00383476 24.9973 	0.00713456 	0.00386409 24.9985 	-1.86598e-05 	0.00211878 24.9974 	0.00697324 	0.00381255 24.9974 	0.00702524 	0.00384098 24.9974 	0.00707763 	0.00386963 24.9973 	0.00713042 	0.00389849 24.9985 	-1.98635e-05 	0.00215135 24.9974 	0.00698524 	0.00383365 24.9974 	0.00703588 	0.00386144 24.9973 	0.00708689 	0.00388944 24.9973 	0.00713827 	0.00391764 24.9984 	-2.07947e-05 	0.00218013 24.9974 	0.00700467 	0.00384372 24.9973 	0.00705394 	0.00387076 24.9973 	0.00710355 	0.00389798 24.9973 	0.00715352 	0.0039254 24.9984 	-2.15966e-05 	0.00220666 24.9973 	0.0070305 	0.00385021 24.9973 	0.00707848 	0.00387648 24.9973 	0.00712679 	0.00390293 24.9973 	0.00717542 	0.00392957 24.9984 	-2.23183e-05 	0.00222543 24.97 	0.00547835 	0.0421069 24.9418 	0.0043787 	0.0815395 24.9135 	0.00376119 	0.121168 24.885 	0.0036293 	0.160994 24.8611 	0.00270689 	0.190815