# vtk DataFile Version 2.0
track0
ASCII
DATASET POLYDATA
POINTS 15175 float
-1.001 -0.05 0.0011
-1.00088 -0.05 0.0011
-1.00076 -0.05 0.00109999
-1.00064 -0.05 0.00109999
-1.00052 -0.05 0.00109999
-1.0004 -0.05 0.00109998
-0.975398 -0.05 0.00109925
-0.9504 -0.0499999 0.00109824
-0.925402 -0.0499999 0.00109723
-0.900404 -0.0499998 0.00109622
-0.875406 -0.0499998 0.00109521
-0.850407 -0.0499998 0.00109409
-0.825407 -0.0499996 0.00109261
-0.800408 -0.0499994 0.00109113
-0.775408 -0.0499993 0.00108965
-0.750409 -0.0499991 0.00108817
-0.737914 -0.049999 0.00108724
-0.72542 -0.0499988 0.00108571
-0.712925 -0.0499986 0.00108418
-0.700431 -0.0499984 0.00108266
-0.687936 -0.0499982 0.00108113
-0.675431 -0.0499982 0.00108006
-0.662926 -0.049998 0.00107837
-0.65042 -0.0499978 0.00107669
-0.637915 -0.0499976 0.001075
-0.62541 -0.0499973 0.00107332
-0.612898 -0.0499971 0.00107202
-0.600387 -0.0499968 0.00107009
-0.587876 -0.0499966 0.00106817
-0.575365 -0.0499963 0.00106625
-0.562854 -0.049996 0.00106434
-0.550338 -0.049996 0.00106278
-0.537822 -0.0499956 0.00106062
-0.525307 -0.0499953 0.00105847
-0.512791 -0.0499949 0.00105632
-0.500275 -0.0499945 0.00105417
-0.487751 -0.0499941 0.00105239
-0.475226 -0.0499936 0.00105008
-0.462701 -0.0499931 0.00104778
-0.450177 -0.0499926 0.00104548
-0.437652 -0.0499921 0.00104318
-0.42513 -0.0499922 0.00104125
-0.412607 -0.0499915 0.00103882
-0.400084 -0.0499908 0.00103639
-0.387562 -0.0499902 0.00103396
-0.375039 -0.0499895 0.00103154
-0.362534 -0.0499887 0.00102975
-0.350028 -0.0499879 0.00102811
-0.337522 -0.049987 0.00102648
-0.325017 -0.0499862 0.00102485
-0.312511 -0.0499854 0.00102323
-0.306259 -0.0499849 0.00102248
-0.300007 -0.0499839 0.00102117
-0.293755 -0.049983 0.00101987
-0.287503 -0.049982 0.00101858
-0.281251 -0.0499811 0.00101728
-0.275 -0.0499798 0.00101664
-0.26875 -0.0499787 0.00101565
-0.2625 -0.0499775 0.00101467
-0.25625 -0.0499764 0.00101368
-0.25 -0.0499752 0.0010127
-0.24375 -0.0499746 0.00101229
-0.2375 -0.0499732 0.00101158
-0.23125 -0.0499718 0.00101086
-0.225 -0.0499704 0.00101015
-0.21875 -0.0499691 0.00100943
-0.2125 -0.0499675 0.00100929
-0.20625 -0.0499658 0.00100892
-0.2 -0.0499641 0.00100854
-0.19375 -0.0499624 0.00100817
-0.1875 -0.0499607 0.0010078
-0.18125 -0.04996 0.00100803
-0.175 -0.049958 0.00100812
-0.16875 -0.049956 0.0010082
-0.1625 -0.049954 0.00100829
-0.15625 -0.049952 0.00100837
-0.153125 -0.0499508 0.00100855
-0.15 -0.0499486 0.00100882
-0.146875 -0.0499463 0.0010091
-0.14375 -0.0499441 0.00100937
-0.140625 -0.0499418 0.00100965
-0.1375 -0.0499398 0.00100992
-0.134374 -0.0499373 0.0010104
-0.131249 -0.0499347 0.00101088
-0.128124 -0.0499321 0.00101136
-0.124999 -0.0499295 0.00101184
-0.121874 -0.0499281 0.00101224
-0.118749 -0.0499252 0.00101289
-0.115624 -0.0499224 0.00101354
-0.112499 -0.0499195 0.00101419
-0.109374 -0.0499166 0.00101484
-0.106249 -0.0499144 0.00101538
-0.103124 -0.0499113 0.00101615
-0.0999989 -0.0499082 0.00101693
-0.0968739 -0.0499051 0.00101771
-0.0937488 -0.0499019 0.00101849
-0.0906239 -0.0499003 0.00101912
-0.0874989 -0.049897 0.00102001
-0.0843739 -0.0498937 0.0010209
-0.0812489 -0.0498903 0.0010218
-0.0781239 -0.049887 0.00102269
-0.0749989 -0.0498845 0.00102345
-0.0718739 -0.049881 0.00102445
-0.0687489 -0.0498774 0.00102546
-0.0656238 -0.0498738 0.00102646
-0.0624988 -0.0498702 0.00102747
-0.0593738 -0.0498685 0.00102831
-0.0562488 -0.0498647 0.00102942
-0.0531238 -0.0498609 0.00103053
-0.0499988 -0.0498571 0.00103164
-0.0468738 -0.0498533 0.00103276
-0.0437488 -0.0498506 0.00103372
-0.0406238 -0.0498466 0.00103493
-0.0374988 -0.0498425 0.00103615
-0.0343738 -0.0498385 0.00103737
-0.0312488 -0.0498345 0.00103859
-0.0281239 -0.0498325 0.00103964
-0.0249989 -0.0498283 0.00104095
-0.0218739 -0.049824 0.00104227
-0.018749 -0.0498198 0.00104359
-0.015624 -0.0498155 0.00104492
-0.012499 -0.0498126 0.00104607
-0.00937393 -0.0498081 0.00104749
-0.00624889 -0.0498036 0.00104891
-0.00312386 -0.0497991 0.00105033
1.18324e-06 -0.0497946 0.00105175
0.00312621 -0.0497925 0.00105299
0.00625124 -0.0497878 0.0010545
0.00937627 -0.0497831 0.00105601
0.0125013 -0.0497784 0.00105752
0.0156263 -0.0497737 0.00105904
0.0187516 -0.0497705 0.00106038
0.0218768 -0.0497655 0.00106199
0.025002 -0.0497606 0.00106359
0.0281273 -0.0497557 0.0010652
0.0312525 -0.0497507 0.00106681
0.0343793 -0.0497484 0.00106823
0.037506 -0.0497432 0.00106992
0.0406327 -0.0497381 0.00107161
0.0437595 -0.0497329 0.00107331
0.0468862 -0.0497278 0.00107501
0.050011 -0.0497243 0.00107653
0.0531358 -0.0497189 0.0010783
0.0562606 -0.0497136 0.00108008
0.0593853 -0.0497082 0.00108186
0.0625101 -0.0497028 0.00108364
0.065635 -0.0497003 0.00108523
0.0687598 -0.0496947 0.00108709
0.0718846 -0.0496891 0.00108895
0.0750094 -0.0496835 0.00109081
0.0781342 -0.0496779 0.00109268
0.0812601 -0.0496742 0.00109436
0.084386 -0.0496684 0.00109629
0.0875119 -0.0496625 0.00109823
0.0906377 -0.0496567 0.00110017
0.0937636 -0.0496509 0.00110212
0.0968915 -0.0496482 0.00110386
0.100019 -0.0496421 0.00110587
0.103147 -0.0496361 0.00110788
0.106275 -0.04963 0.0011099
0.109403 -0.049624 0.00111192
0.112529 -0.04962 0.00111374
0.115655 -0.0496138 0.00111582
0.118781 -0.0496076 0.0011179
0.121907 -0.0496013 0.00111999
0.125032 -0.049595 0.00112208
0.128157 -0.0495922 0.00112396
0.131283 -0.0495857 0.0011261
0.134408 -0.0495793 0.00112825
0.137533 -0.0495728 0.0011304
0.140658 -0.0495663 0.00113255
0.143784 -0.0495621 0.00113449
0.146909 -0.0495555 0.0011367
0.150035 -0.0495488 0.00113891
0.153161 -0.0495422 0.00114112
0.156287 -0.0495355 0.00114334
0.159413 -0.0495324 0.00114533
0.16254 -0.0495256 0.00114759
0.165667 -0.0495187 0.00114986
0.168794 -0.0495118 0.00115213
0.171921 -0.0495049 0.0011544
0.175047 -0.0495005 0.00115645
0.178172 -0.0494935 0.00115876
0.181298 -0.0494864 0.00116108
0.184424 -0.0494793 0.0011634
0.18755 -0.0494722 0.00116573
0.190674 -0.049469 0.00116782
0.193799 -0.0494618 0.00117018
0.196923 -0.0494545 0.00117254
0.200048 -0.0494473 0.00117491
0.203172 -0.04944 0.00117728
0.206296 -0.0494354 0.00117941
0.209421 -0.0494279 0.00118181
0.212545 -0.0494205 0.00118421
0.215669 -0.0494131 0.00118662
0.218794 -0.0494056 0.00118904
0.221919 -0.0494022 0.0011912
0.225045 -0.0493946 0.00119364
0.22817 -0.049387 0.00119609
0.231296 -0.0493794 0.00119853
0.234421 -0.0493718 0.00120099
0.237548 -0.0493669 0.00120318
0.240674 -0.0493592 0.00120565
0.2438 -0.0493514 0.00120813
0.246927 -0.0493436 0.00121062
0.250053 -0.0493358 0.0012131
0.25318 -0.0493323 0.00121533
0.256307 -0.0493243 0.00121784
0.259434 -0.0493164 0.00122035
0.262561 -0.0493084 0.00122286
0.265688 -0.0493004 0.00122538
0.268813 -0.0492954 0.00122763
0.271938 -0.0492873 0.00123015
0.275062 -0.0492792 0.00123269
0.278187 -0.0492711 0.00123522
0.281312 -0.049263 0.00123777
0.284435 -0.0492593 0.00124004
0.287558 -0.0492511 0.00124259
0.290681 -0.0492429 0.00124514
0.293804 -0.0492346 0.00124769
0.296927 -0.0492264 0.00125025
0.30005 -0.0492212 0.00125253
0.303174 -0.0492128 0.00125509
0.306297 -0.0492045 0.00125766
0.309421 -0.0491961 0.00126023
0.312544 -0.0491877 0.0012628
0.315668 -0.0491839 0.0012651
0.318793 -0.0491755 0.00126767
0.321917 -0.049167 0.00127025
0.325041 -0.0491585 0.00127283
0.328166 -0.0491499 0.00127542
0.331291 -0.0491446 0.00127772
0.334416 -0.049136 0.0012803
0.337541 -0.0491274 0.00128288
0.340666 -0.0491187 0.00128547
0.343791 -0.0491101 0.00128807
0.346916 -0.0491063 0.00129039
0.350042 -0.0490975 0.00129297
0.353168 -0.0490888 0.00129557
0.356294 -0.04908 0.00129816
0.35942 -0.0490713 0.00130077
0.362549 -0.0490658 0.00130307
0.365679 -0.049057 0.00130566
0.368808 -0.0490481 0.00130826
0.371938 -0.0490392 0.00131086
0.375068 -0.0490304 0.00131347
0.378205 -0.0490264 0.0013158
0.381343 -0.0490175 0.0013184
0.384481 -0.0490085 0.001321
0.387619 -0.0489995 0.00132361
0.390756 -0.0489905 0.00132623
0.393889 -0.0489849 0.00132853
0.397022 -0.0489759 0.00133112
0.400155 -0.0489669 0.00133372
0.403288 -0.0489578 0.00133632
0.406421 -0.0489488 0.00133892
0.409551 -0.0489448 0.00134123
0.412682 -0.0489357 0.00134382
0.415813 -0.0489266 0.0013464
0.418943 -0.0489175 0.001349
0.422074 -0.0489083 0.0013516
0.425204 -0.0489026 0.00135388
0.428334 -0.0488935 0.00135646
0.431464 -0.0488843 0.00135904
0.434594 -0.0488751 0.00136162
0.437724 -0.0488659 0.00136421
0.440854 -0.0488618 0.00136651
0.443984 -0.0488526 0.00136907
0.447114 -0.0488433 0.00137164
0.450244 -0.048834 0.00137422
0.453374 -0.0488247 0.0013768
0.456504 -0.048819 0.00137906
0.459634 -0.0488097 0.00138162
0.462763 -0.0488004 0.00138418
0.465893 -0.048791 0.00138674
0.469023 -0.0487817 0.00138931
0.472152 -0.0487776 0.00139158
0.475282 -0.0487682 0.00139412
0.478411 -0.0487588 0.00139666
0.481541 -0.0487494 0.00139921
0.48467 -0.04874 0.00140177
0.4878 -0.0487342 0.001404
0.490929 -0.0487248 0.00140652
0.494058 -0.0487154 0.00140905
0.497187 -0.0487059 0.00141158
0.500317 -0.0486965 0.00141412
0.503446 -0.0486923 0.00141635
0.506575 -0.0486829 0.00141886
0.509704 -0.0486734 0.00142137
0.512833 -0.0486639 0.00142389
0.515962 -0.0486544 0.00142641
0.519091 -0.0486485 0.0014286
0.52222 -0.0486391 0.00143109
0.525348 -0.0486296 0.00143358
0.528477 -0.04862 0.00143607
0.531606 -0.0486105 0.00143857
0.534734 -0.0486063 0.00144077
0.537863 -0.0485968 0.00144324
0.540992 -0.0485873 0.00144571
0.54412 -0.0485778 0.00144818
0.547249 -0.0485682 0.00145066
0.550377 -0.0485623 0.00145281
0.553506 -0.0485527 0.00145525
0.556634 -0.0485432 0.0014577
0.559762 -0.0485336 0.00146015
0.562891 -0.048524 0.00146261
0.566019 -0.0485198 0.00146476
0.569147 -0.0485103 0.00146718
0.572275 -0.0485007 0.0014696
0.575403 -0.0484912 0.00147203
0.578532 -0.0484816 0.00147446
0.58166 -0.0484756 0.00147657
0.584788 -0.0484661 0.00147896
0.587915 -0.0484565 0.00148136
0.591043 -0.0484469 0.00148376
0.594171 -0.0484373 0.00148617
0.597299 -0.0484331 0.00148828
0.600427 -0.0484235 0.00149066
0.603555 -0.048414 0.00149304
0.606683 -0.0484044 0.00149542
[...]
POINT_DATA 15175
 FIELD attributes 2
p 1 15175 float
-4.97254 -4.97411 -4.97569 -4.97726 -4.97884 -4.98041 -5.49398 -6.0068 -6.53021 -7.05362 -7.57403 -8.4679 -9.36671 -10.2655 -11.1624 -12.017 -12.5937 -13.184 -13.7742 -14.3645 -15.0229 -15.855 -16.679 -17.503 -18.3269 -19.1476 -20.1029 -21.0557 -22.0085 -22.9613 -23.9199 -25.085 -26.2412 -27.3973 -28.5535 -29.7125 -31.1112 -32.5098 -33.9083 -35.3069 -36.7215 -38.3788 -40.0269 -41.6751 -43.3232 -44.9825 -46.8099 -48.6383 -50.4667 -52.295 -54.4296 -55.2533 -56.1117 -57.0731 -58.0344 -59.0139 -59.9108 -60.8059 -61.7009 -62.6087 -63.5132 -64.2605 -65.0091 -65.7464 -66.4837 -67.224 -67.8557 -68.4952 -69.1348 -69.7811 -70.4363 -70.9694 -71.5029 -72.0178 -72.5219 -72.9873 -73.0884 -73.2459 -73.4034 -73.5609 -73.7823 -73.9249 -74.0794 -74.2338 -74.3882 -74.5708 -74.6684 -74.7763 -74.8842 -74.992 -75.1243 -75.1852 -75.2461 -75.3071 -75.3681 -75.4343 -75.4466 -75.461 -75.4755 -75.4899 -75.5084 -75.477 -75.445 -75.413 -75.3811 -75.3501 -75.2731 -75.1962 -75.1193 -75.0423 -74.9663 -74.8482 -74.7283 -74.6084 -74.4884 -74.3677 -74.2081 -74.0474 -73.8866 -73.7259 -73.5649 -73.3684 -73.1689 -72.9695 -72.77 -72.569 -72.3349 -72.0989 -71.8629 -71.6269 -71.3904 -71.1239 -70.8538 -70.5837 -70.3135 -70.0416 -69.7421 -69.4405 -69.1389 -68.8373 -68.5352 -68.2093 -67.8793 -67.5494 -67.2195 -66.8877 -66.5347 -66.1795 -65.8242 -65.469 -65.1135 -64.7399 -64.3622 -63.9845 -63.6068 -63.2272 -62.8323 -62.4352 -62.0381 -61.641 -61.2436 -60.8347 -60.4217 -60.0087 -59.5957 -59.1809 -58.757 -58.331 -57.905 -57.4789 -57.0526 -56.6201 -56.1837 -55.7472 -55.3107 -54.8725 -54.4305 -53.9863 -53.5421 -53.0979 -52.6535 -52.2083 -51.7592 -51.3102 -50.8612 -50.4106 -49.9614 -49.5102 -49.0589 -48.6077 -48.1563 -47.7086 -47.2572 -46.8058 -46.3544 -45.9016 -45.454 -45.0044 -44.5548 -44.1052 -43.6553 -43.2128 -42.7668 -42.3208 -41.8748 -41.4274 -40.9888 -40.5484 -40.1079 -39.6674 -39.2267 -38.7967 -38.3636 -37.9304 -37.4973 -37.0629 -36.6403 -36.2157 -35.7912 -35.3667 -34.9419 -34.5298 -34.1149 -33.7 -33.2851 -32.869 -32.4664 -32.0619 -31.6575 -31.2531 -30.8481 -30.4576 -30.0645 -29.6713 -29.2782 -28.8838 -28.5045 -28.1234 -27.7423 -27.3612 -26.9795 -26.6132 -26.2446 -25.8759 -25.5072 -25.1374 -24.7832 -24.4272 -24.0712 -23.7152 -23.3586 -23.0186 -22.6764 -22.3342 -21.992 -21.6487 -21.3221 -20.994 -20.6658 -20.3376 -20.0086 -19.6966 -19.3825 -19.0684 -18.7543 -18.439 -18.1405 -17.8404 -17.5403 -17.2401 -16.939 -16.6548 -16.3686 -16.0823 -15.7961 -15.5085 -15.2378 -14.9653 -14.6928 -14.4202 -14.1466 -13.8896 -13.6307 -13.3717 -13.1128 -12.8525 -12.6086 -12.3629 -12.1173 -11.8716 -11.6248 -11.3941 -11.1613 -10.9286 -10.6959 -10.4617 -10.2432 -10.0229 -9.80253 -9.58218 -9.36047 -9.15397 -8.94531 -8.73664 -8.52798 -8.31772 -8.12189 -7.92365 -7.72541 -7.52717 -7.32731 -7.14146 -6.95264 -6.76382 -6.575 -6.38442 -6.20817 -6.03197 -5.85577 -5.67958 -5.50381 -5.34145 -5.18018 -5.01891 -4.85764 -4.69733 -4.54768 -4.3978 -4.24792 -4.09805 -3.9481 -3.80754 -3.66566 -3.52378 -3.38191 -3.23926 -3.10683 -2.97512 -2.8434 -2.71168 -2.58071 -2.46104 -2.34333 -2.22562 -2.10791 -1.99119 -1.88438 -1.77548 -1.66658 -1.55768 -1.44611 -1.3434 -1.2376 -1.1318 -1.02601 -0.917264 -0.818763 -0.718115 -0.617467 -0.516812 -0.414344 -0.322587 -0.229243 -0.135899 -0.0425546 0.0520832 0.136802 0.222873 0.308944 0.395014 0.482303 0.560464 0.639934 0.719402 0.798871 0.879511 0.951706 1.02503 1.09835 1.17167 1.24603 1.31246 1.37997 1.44747 1.51498 1.5835 1.64459 1.70661 1.76864 1.83067 1.89359 1.94956 2.00643 2.0633 2.12017 2.1779 2.22915 2.28116 2.33317 2.38519 2.43794 2.48465 2.53214 2.57963 2.62712 2.6754 2.71795 2.76118 2.8044 2.84763 2.89152 2.92999 2.9691 3.00822 3.04734 3.08714 3.12172 3.15683 3.19194 3.22704 3.26272 3.29338 3.3246 3.35581 3.38703 3.4188 3.44592 3.47354 3.50116 3.52878 3.55698 3.5805 3.60384 3.62719 3.65054 3.67402 3.69283 3.71214 3.73144 3.75075 3.77199 3.78982 3.80855 3.82727 3.846 3.86458 3.89217 3.93122 3.96881 4.00537 4.04035 4.06438 4.08984 4.11403 4.13666 4.16117 4.17396 4.18562 4.19821 4.21163 4.22664 4.23963 4.26144 4.28232 4.30219 4.33042 4.36055 4.40799 4.46193 4.51587 4.56136 4.58547 4.60772 4.63078 4.65385 4.67203 4.68487 4.69344 4.70201 4.70992 4.71162 4.69957 4.68513 4.67123 4.65732 4.63895 4.60071 4.55843 4.51614 4.47222 4.42102 4.36962 4.3347 4.30296 4.27122 4.24494 4.07383 4.06764 4.06024 4.05284 4.03936 4.05316 4.05527 4.05739 4.06163 4.05381 3.98978 3.90655 3.78675 3.66694 3.53534 3.30048 3.05991 2.81933 2.64182 2.46922 2.2755 2.10409 1.93267 1.72208 1.64593 1.8199 1.98952 2.15914 2.32876 2.31316 2.23661 2.15549 2.07436 1.99324 1.90326 1.60108 1.30426 1.00744 0.710624 0.507785 0.291718 0.0972023 -0.0973155 -0.291835 -0.380349 -0.207298 -0.030157 0.146981 0.324117 0.437305 0.598455 0.765055 0.931655 1.09825 1.25495 1.35475 1.44163 1.52852 1.61541 1.69244 1.64114 1.57802 1.5149 1.45178 1.31538 1.17557 1.02637 0.877173 0.727976 0.599351 0.518161 0.4325 0.34684 0.26118 0.189341 0.17573 0.159441 0.143153 0.126864 0.113902 0.113432 0.110819 0.108206 0.105593 0.10385 0.10128 0.0970047 0.0927299 0.0884553 0.0849241 0.0827742 0.0793052 0.0758362 0.0723674 0.0693999 0.068437 0.0663906 0.0643442 0.0622979 0.0605737 0.0610162 0.0606036 0.0601909 0.0597784 0.0597238 0.0545061 0.0484361 0.0423972 0.0363901 0.0313719
-4.78377 -4.78532 -4.78688 -4.78844 -4.79 -4.79156 -5.32139 -5.85121 -6.36739 -6.82248 -7.27755 -8.06406 -8.85069 -9.68437 -10.9623 -12.2008 -12.6681 -13.1698 -13.6716 -14.1733 -14.8352 -15.6671 -16.467 -17.2669 -18.0668 -18.8581 -19.8341 -20.787 -21.74 -22.6929 -23.6302 -24.7875 -25.963 -27.1384 -28.3139 -29.5031 -30.9137 -32.3618 -33.81 -35.2581 -36.7151 -38.3368 -40.0637 -41.7906 -43.5179 -45.2968 -47.1311 -49.1436 -51.1563 -53.1872 -55.6578 -56.54 -57.4213 -58.4376 -59.3656 -60.2797 -61.2921 -62.295 -63.2138 -64.0272 -64.828 -65.6552 -66.481 -67.2816 -68.0223 -68.7576 -69.4555 -70.1527 -70.8423 -71.4865 -72.126 -72.6853 -73.2433 -73.7824 -74.3454 -74.9158 -75.0353 -75.1903 -75.3414 -75.4924 -75.701 -75.8379 -75.9864 -76.1349 -76.291 -76.4785 -76.5888 -76.6973 -76.7998 -76.9024 -77.0172 -77.0725 -77.1299 -77.1875 -77.2479 -77.3151 -77.3257 -77.3385 -77.3506 -77.3628 -77.3789 -77.3446 -77.3123 -77.28 -77.2476 -77.2169 -77.1349 -77.0546 -76.9756 -76.8966 -76.8188 -76.6937 -76.5703 -76.4469 -76.3209 -76.1944 -76.023 -75.8537 -75.6884 -75.5231 -75.3583 -75.1521 -74.947 -74.742 -74.5313 -74.3196 -74.0683 -73.8185 -73.5756 -73.3328 -73.0902 -72.858 -72.6262 -72.3945 -72.1601 -71.9334 -71.8831 -71.8328 -71.7826 -71.7323 -71.6821 -71.3608 -71.0396 -70.7286 -70.4178 -70.1072 -69.7667 -69.4273 -69.0864 -68.736 -68.3873 -68.0096 -67.6328 -67.2646 -66.899 -66.534 -66.1427 -65.7545 -65.3619 -64.9615 -64.5648 -64.1431 -63.7233 -63.3095 -62.9013 -62.4946 -62.065 -61.6407 -61.2091 -60.7729 -60.3428 -59.8908 -59.4421 -58.9962 -58.5589 -58.1243 -57.6685 -57.2211 -56.7633 -56.304 -55.8541 -55.3827 -54.9165 -54.4504 -53.9948 -53.544 -53.0723 -52.6104 -52.1391 -51.6679 -51.2091 -50.7288 -50.2564 -49.784 -49.3179 -48.8624 -48.3852 -47.9184 -47.4462 -46.974 -46.5177 -46.0383 -45.5694 -45.1004 -44.6341 -44.1837 -43.7096 -43.2467 -42.782 -42.3172 -41.8715 -41.4004 -40.9425 -40.4845 -40.0265 -39.5884 -39.1252 -38.676 -38.2268 -37.7776 -37.3446 -36.8931 -36.4534 -36.0137 -35.5738 -35.1455 -34.7064 -34.2768 -33.8474 -33.418 -32.9972 -32.5726 -32.1548 -31.7369 -31.3186 -30.9041 -30.4936 -30.0876 -29.6819 -29.2763 -28.8716 -28.7826 -28.6944 -28.6062 -28.5179 -28.4298 -28.1247 -27.8196 -27.5145 -27.2085 -26.9028 -26.5197 -26.1386 -25.7582 -25.3778 -24.9981 -24.6288 -24.2627 -23.8966 -23.5299 -23.1647 -22.8083 -22.4565 -22.1054 -21.7542 -21.4051 -21.0628 -20.7263 -20.3898 -20.0526 -19.7183 -19.3894 -19.0668 -18.745 -18.4232 -18.1044 -17.79 -17.482 -17.1747 -16.8676 -16.5635 -16.2643 -15.9693 -15.6767 -15.3854 -15.0962 -14.8118 -14.5306 -14.2524 -13.9759 -13.701 -13.4314 -13.1634 -12.8995 -12.6382 -12.3778 -12.1222 -11.8672 -11.6171 -11.3701 -11.1233 -10.8818 -10.6402 -10.4037 -10.1708 -9.93802 -9.70963 -9.48125 -9.25758 -9.03755 -8.81753 -8.60252 -8.38751 -8.17663 -7.96978 -7.76293 -7.56019 -7.35746 -7.15886 -6.96407 -6.76929 -6.5793 -6.38931 -6.20305 -6.0207 -5.83835 -5.65991 -5.48147 -5.30697 -5.13589 -4.96481 -4.79839 -4.63244 -4.46948 -4.30941 -4.14999 -3.9941 -3.83935 -3.68728 -3.53713 -3.38801 -3.24309 -3.0997 -2.95802 -2.81786 -2.67953 -2.54397 -2.41076 -2.27893 -2.14791 -2.01883 -1.89323 -1.7701 -1.64759 -1.52544 -1.40611 -1.28874 -1.17489 -1.06117 -0.947455 -0.836161 -0.727955 -0.622453 -0.516978 -0.411511 -0.308305 -0.207831 -0.110093 -0.0123474 0.0854502 0.181831 0.274153 0.364708 0.455163 0.545604 0.634907 0.720007 0.803557 0.887109 0.970803 1.05392 1.13187 1.20906 1.28607 1.36308 1.43984 1.48433 1.52846 1.57259 1.61671 1.66125 1.68813 1.71501 1.74189 1.76877 1.79508 1.86128 1.92697 1.99247 2.05797 2.1216 2.18325 2.24328 2.30332 2.36354 2.42038 2.47838 2.53348 2.58837 2.64327 2.69378 2.74767 2.79779 2.84791 2.89819 2.94249 2.99346 3.03926 3.08489 3.13052 3.16937 3.21662 3.25807 3.29951 3.34111 3.37427 3.41915 3.45682 3.49433 3.53113 3.56042 3.60092 3.63576 3.66958 3.7015 3.72678 3.76444 3.79714 3.82762 3.85513 3.87764 3.9115 3.94115 3.9681 3.99188 4.01068 4.04216 4.0684 4.09246 4.11414 4.13066 4.15936 4.18304 4.20467 4.22382 4.23767 4.2684 4.28786 4.30312 4.31544 4.31691 4.35303 4.37967 4.40783 4.43974 4.46203 4.49635 4.52191 4.54747 4.57343 4.59475 4.62502 4.64632 4.66632 4.68631 4.70257 4.7193 4.73131 4.74331 4.75532 4.76926 4.79616 4.82305 4.82682 4.79108 4.75534 4.8456 4.93586 4.95921 4.91641 4.87359 4.94526 5.01694 5.02279 4.96049 4.89819 4.96219 5.02619 5.01459 4.92739 4.84019 4.87681 4.91345 4.88254 4.78181 4.68108 4.75051 4.81995 4.77543 4.62503 4.47461 4.38304 4.3071 4.25024 4.19339 4.11256 4.24752 4.26133 4.27498 4.28865 4.17276 4.22242 4.11263 4.00284 3.89941 3.70061 3.54142 3.35319 3.15526 2.95733 2.75193 2.30757 1.89929 1.54277 1.34098 1.32018 1.53442 1.69927 1.96998 2.37475 2.61235 2.73841 2.76666 2.75216 2.67663 2.52021 2.18091 1.89101 1.60361 1.31696 1.08853 0.727239 0.549291 -0.0134505 -0.499499 -0.607694 -0.462792 -0.287968 -0.113173 0.0293797 0.120132 0.194386 0.239755 0.398249 0.556703 0.663955 0.810751 0.8889 0.967012 1.05102 1.07757 1.05478 0.979274 0.903545 0.996461 1.05852 1.07497 0.925218 0.775009 0.624799 0.456407 0.45613 0.371929 0.285767 0.199604 0.107476 0.125721 0.110443 0.0937909 0.077138 0.055166 0.0733598 0.0715915 0.0686938 0.0657956 0.058287 0.0695208 0.0661516 0.0616612 0.0571705 0.0493389 0.0567788 0.0541188 0.0504837 0.0468483 0.0408063 0.0470767 0.0457895 0.0436124 0.041435 0.0374145 0.0438393 0.0442172 0.0437053 0.0431932 0.0413908 0.0479764 0.0440196 0.0378679 0.0317065 0.0247595
-4.59104 -4.59254 -4.59405 -4.59555 -4.59705 -4.59856 -5.11409 -5.5883 -6.06256 -6.53469 -6.99422 -7.80412 -8.68763 -9.57115 -10.3972 -11.5391 -12.0442 -12.5627 -13.0813 -13.5913 -14.1897 -15.003 -15.7844 -16.5387 -17.2931 -18.0398 -19.0121 -19.9609 -20.9097 -21.8625 -22.8031 -23.9987 -25.1889 -26.4071 -27.6253 -28.8357 -30.3272 -31.8991 -33.4713 -34.9485 -36.4902 -38.3069 -40.0759 -42.0281 -43.9786 -45.8596 -47.9197 -50.215 -52.5182 -54.8094 -57.5949 -58.4956 -59.4342 -60.3683 -61.2603 -62.4574 -63.5848 -64.6295 -65.6536 -66.6808 -67.7653 -68.7611 -69.6733 -70.5819 -71.5041 -72.5042 -73.3569 -74.1494 -74.9342 -75.7215 -76.5717 -77.2719 -77.8866 -78.5017 -79.2602 -79.9666 -80.1162 -80.3041 -80.4899 -80.6711 -80.9043 -81.07 -81.2582 -81.441 -81.6207 -81.8241 -81.9541 -82.0871 -82.2246 -82.3676 -82.5139 -82.5987 -82.6847 -82.7681 -82.8483 -82.9316 -82.9498 -82.9705 -82.9929 -83.0165 -83.0415 -83.0137 -82.9855 -82.9582 -82.9322 -82.9072 -82.824 -82.7427 -82.6566 -82.5692 -82.4831 -82.3415 -82.1991 -82.0577 -81.926 -81.7946 -81.6136 -81.4342 -81.2424 -81.051 -80.8611 -80.6207 -80.3795 -80.1387 -79.9122 -79.6899 -79.4247 -79.1545 -78.8732 -78.5921 -78.3116 -78.192 -78.0724 -77.9529 -77.8333 -77.7167 -77.5138 -77.311 -77.1098 -76.9167 -76.7235 -76.3851 -76.031 -75.6713 -75.3117 -74.9538 -74.5622 -74.1706 -73.7793 -73.3881 -73.0152 -72.6105 -72.1892 -71.7682 -71.3473 -70.9304 -70.4862 -70.042 -69.5979 -69.154 -68.7168 -68.2537 -67.7886 -67.3242 -66.8599 -66.3974 -66.2459 -66.0944 -65.9429 -65.7914 -65.6437 -65.3146 -64.9855 -64.6565 -64.3276 -63.9981 -63.4995 -63.0069 -62.5144 -62.022 -61.5289 -61.016 -60.5149 -60.0138 -59.5128 -59.0046 -58.4739 -57.9647 -57.4556 -56.9466 -56.4375 -55.9105 -55.3992 -54.888 -54.3681 -53.8474 -53.3088 -52.784 -52.2709 -51.7579 -51.2452 -50.7162 -50.2054 -49.6946 -49.1616 -48.6468 -48.1153 -47.5885 -47.0772 -46.5701 -46.0643 -45.5445 -45.0451 -44.5338 -44.0129 -43.5135 -42.9986 -42.4887 -41.98 -41.4878 -40.9967 -40.4926 -40.0053 -39.504 -39.0047 -38.5247 -38.0309 -37.5424 -37.0548 -36.5724 -36.1035 -35.6231 -35.1482 -34.6743 -34.2004 -33.7434 -33.2775 -32.818 -32.3585 -31.8984 -31.4466 -30.9974 -30.5519 -30.107 -29.6621 -29.2189 -29.1181 -29.0181 -28.9181 -28.8181 -28.7183 -28.3878 -28.0574 -27.727 -27.3952 -27.0653 -26.6448 -26.2303 -25.8167 -25.4031 -24.9932 -24.5847 -24.1883 -23.792 -23.3946 -23.0047 -22.6093 -22.2269 -21.8478 -21.4709 -21.0982 -20.7209 -20.3501 -19.988 -19.631 -19.2761 -18.9166 -18.5588 -18.2143 -17.8756 -17.5382 -17.1966 -16.8568 -16.5269 -16.2053 -15.8853 -15.5612 -15.2376 -14.9229 -14.6198 -14.3171 -14.0102 -13.7046 -13.4072 -13.1182 -12.8321 -12.5423 -12.2573 -11.9768 -11.6992 -11.4297 -11.156 -10.8899 -10.6256 -10.3616 -10.1068 -9.85129 -9.60317 -9.35484 -9.10589 -8.86227 -8.62479 -8.39117 -8.15805 -7.92515 -7.69303 -7.64794 -7.60352 -7.55911 -7.51469 -7.47018 -7.29493 -7.11968 -6.94392 -6.76816 -6.59524 -6.38589 -6.17951 -5.97344 -5.76761 -5.56821 -5.36893 -5.17672 -4.98426 -4.79157 -4.60857 -4.4208 -4.24015 -4.06077 -3.88491 -3.71598 -3.54034 -3.36884 -3.20185 -3.04115 -2.88367 -2.72093 -2.55873 -2.40363 -2.25878 -2.11394 -1.96201 -1.81002 -1.66669 -1.53192 -1.39717 -1.25689 -1.11662 -0.984655 -0.861319 -0.737998 -0.607151 -0.476501 -0.355545 -0.240618 -0.126356 -0.00626636 0.110715 0.222004 0.329512 0.433538 0.545484 0.65085 0.75309 0.854434 0.950639 1.05285 1.14663 1.24038 1.33413 1.42269 1.51485 1.60065 1.68645 1.77231 1.85595 1.93731 2.01582 2.09421 2.17259 2.25075 2.2575 2.26398 2.27046 2.27694 2.28342 2.3496 2.41576 2.48193 2.54822 2.61168 2.68015 2.7465 2.81271 2.87891 2.94013 3.00377 3.06387 3.12396 3.18419 3.2357 3.29613 3.35093 3.40526 3.45774 3.50417 3.55795 3.60891 3.65755 3.7023 3.74253 3.79244 3.83761 3.88114 3.9221 3.9586 4.00253 4.04324 4.08191 4.11673 4.14773 4.18845 4.22307 4.25659 4.28951 4.31733 4.35263 4.38436 4.41309 4.44029 4.46331 4.49593 4.52179 4.54634 4.57195 4.59231 4.62015 4.64314 4.66413 4.68476 4.70092 4.72669 4.74498 4.76288 4.78098 4.79472 4.81592 4.83063 4.84524 4.85985 4.87103 4.88854 4.89993 4.91132 4.92271 4.93241 4.94426 4.95114 4.95802 4.9649 4.9709 4.99435 5.01866 5.03412 5.04348 5.05044 5.07362 5.09175 5.1021 5.11148 5.11576 5.12604 5.12773 5.12943 5.13616 5.13913 5.1437 5.14259 5.13837 5.13416 5.12618 5.09982 5.03701 5.00525 4.99766 4.98171 5.01234 5.02337 5.03285 5.04068 5.0459 5.04804 5.04665 5.04526 5.04387 5.04248 5.04251 5.04253 5.04502 5.04763 5.02431 5.02742 5.00928 4.98872 4.96632 4.8963 4.8948 4.85318 4.8145 4.78031 4.66933 4.68053 4.64607 4.6001 4.54066 4.40731 4.27299 4.20884 4.1428 4.0597 3.89438 4.21924 4.2976 4.3405 4.34865 4.14324 4.31345 4.21765 4.09089 3.94304 3.54341 3.58452 3.22193 2.85936 2.50314 2.07315 1.72049 1.53148 1.3425 1.15357 1.03355 1.04742 1.05485 1.06229 1.06973 1.10371 1.47738 1.85124 2.22529 2.59954 2.59761 3.22518 3.3099 3.34372 3.28354 2.59985 2.93375 2.61377 2.29411 1.97477 1.30344 0.502433 -0.206588 -0.450962 -0.694213 -0.824261 -0.677906 -0.524102 -0.40654 -0.288909 -0.198092 -0.13825 -0.152656 -0.167054 -0.120236 -0.0150018 0.116645 0.192686 0.271046 0.349947 0.375251 0.334248 0.428823 0.54293 0.659264 0.723677 0.736837 0.723291 0.588293 0.437284 0.269249 0.267416 0.254755 0.180289 0.0936705 0.00145053 0.0187922 0.0292997 0.0181759 0.00120382 -0.0207807 -0.00323722 0.00896513 0.00983755 0.00669604 -0.000806774 0.00995614 0.0168059 0.0157078 0.0110303 0.00317858 0.0102806 0.0145624 0.013679 0.00989664 0.00381671 0.00983565 0.0136995 0.0139209 0.0116272 0.00756491 0.0138063 0.0184979 0.0203171 0.0197152 0.0178684 0.0243191 0.029562 0.0291647 0.0229835 0.0160436