# vtk DataFile Version 2.0
sampleSurface
ASCII
DATASET POLYDATA
POINTS 8354 float
1.75549e-13 0 0 1.75549e-13 0 0.01875 0.0625 0 0 -0.0625 0
0 0.0625 -5.11491e-18 0.01875 -0.0625 5.48644e-18 0.01875 1.59532e-13 -2.52877e-18 0.0806582
0.0625 0 0.0806582 -0.0625 -1.26218e-29 0.0806582 0.125 0 0 -0.125
-1.26218e-29 0 0.125 0 0.01875 -0.125 -1.26218e-29 0.01875 1.50652e-13 0
0.142566 0.125 5.1813e-18 0.0806582 -0.125 5.65082e-18 0.0806602 0.0625 1.64721e-18 0.142566
-0.0625 2.03723e-18 0.142566 0.1875 1.26218e-29 0 -0.1875 0 0 0.1875
-4.46051e-18 0.01875 -0.1875 7.89923e-20 0.01875 0.125 1.26218e-29 0.142566 -0.125 0
0.14257 0.1875 -1.26218e-29 0.0806582 -0.1875 0 0.0806602 1.48836e-13 0 0.204475
0.0625 0 0.204475 -0.0625 0 0.204475 0.1875 -4.98715e-18 0.142566 -0.1875
-1.7597e-18 0.14257 0.125 0 0.204475 -0.125 -6.71663e-18 0.204481 0.25 1.26218e-29
0 -0.25 -1.26218e-29 0 0.25 1.26218e-29 0.01875 -0.25 -1.26218e-29 0.01875
0.25 1.26218e-29 0.0806582 -0.25 4.00211e-18 0.0806627 1.54191e-13 0 0.266383 0.0625
4.23976e-18 0.266383 -0.0625 0 0.266383 0.1875 0 0.204475 -0.1875 0
0.204481 0.25 0 0.142566 -0.25 0 0.142575 0.125 0 0.266383
-0.125 1.26218e-29 0.266391 0.3125 0 0 -0.3125 -1.26218e-29 0 0.3125
3.86026e-18 0.01875 -0.3125 4.27294e-18 0.01875 0.3125 0 0.0806582 -0.3125 -1.26218e-29
0.080663 0.25 1.03525e-18 0.204475 -0.25 1.26218e-29 0.204488 0.1875 0 0.266383
-0.1875 1.37701e-18 0.266391 1.66949e-13 4.90093e-18 0.328291 -0.0625 -1.26218e-29 0.328291 0.0625
0 0.328291 0.3125 0 0.142566 -0.3125 4.27624e-18 0.142576 0.125 6.22153e-19
0.328291 -0.125 -2.07532e-18 0.328301 0.25 0 0.266383 -0.25 0 0.266401
0.3125 0 0.204475 -0.3125 1.26218e-29 0.204489 0.375 0 0 -0.375
-2.52435e-29 0 0.375 0 0.01875 -0.375 -2.52435e-29 0.01875 0.1875 0
0.328291 -0.1875 0 0.328301 0.375 6.81186e-18 0.0806582 -0.375 6.54521e-18 0.0806641
1.87544e-13 1.26218e-29 0.390199 0.0625 2.51913e-18 0.390199 -0.0625 9.79971e-20 0.390199 0.375
0 0.142566 -0.375 0 0.142578 0.125 1.26218e-29 0.390199 -0.125 0
0.390211 0.3125 3.38175e-18 0.266383 -0.3125 -1.26218e-29 0.266402 0.25 0 0.328291
-0.25 2.36409e-18 0.328314 0.375 -2.14407e-18 0.204475 -0.375 1.89573e-18 0.204492 0.1875
0 0.390199 -0.1875 -3.51018e-18 0.390211 -0.4375 -2.52435e-29 0 0.4375 4.33579e-18
0 -0.4375 5.39157e-18 0.01875 0.4375 4.33579e-18 0.01875 0.4375 0 0.0806588
-0.4375 0 0.0806641 2.16727e-13 0 0.452107 0.3125 0 0.328291 -0.3125
0 0.328315 0.0625 1.26218e-29 0.452107 -0.0625 0 0.452107 0.375 1.26218e-29
0.266383 -0.375 0 0.266406 0.4375 0 0.142568 -0.4375 -2.52658e-18 0.142578
0.25 0 0.390199 -0.25 0 0.390226 0.125 -3.39343e-18 0.452107 -0.125
-8.79568e-19 0.452121 0.4375 1.26218e-29 0.204477 -0.4375 -2.52435e-29 0.204492 0.1875 0
0.452107 -0.1875 0 0.452121 0.375 0 0.328291 -0.375 2.48192e-18 0.32832
0.3125 -4.01722e-18 0.390199 -0.3125 -2.95176e-18 0.390228 -0.5 0 0 0.5
-1.26218e-29 0 -0.5 0 0.01875 0.5 -1.26218e-29 0.01875 0.5 1.26218e-29
0.0806588 -0.5 0 0.0806641 0.4375 0 0.266385 -0.4375 -4.42667e-18 0.266406
2.55734e-13 0 0.514016 0.25 2.76043e-18 0.452107 -0.25 0 0.452139 0.0625
4.63172e-18 0.514016 -0.0625 0 0.514016 0.5 0 0.142568 -0.5 5.04871e-29
0.142578 0.125 0 0.514016 -0.125 0 0.514031 0.5 -4.53491e-18 0.204477
-0.5 -3.71825e-18 0.204492 0.375 -1.26218e-29 0.390199 -0.375 0 0.390234 0.4375
0 0.328294 -0.4375 -2.52435e-29 0.32832 0.1875 -2.52435e-29 0.514016 -0.1875 3.73614e-18
0.514031 0.3125 1.26218e-29 0.452107 -0.3125 0 0.452142 -0.5625 1.00974e-28 0
0.5625 1.26218e-29 0 -0.5625 -3.62689e-18 0.01875 0.5625 -4.16584e-18 0.01875 0.5
1.26218e-29 0.266385 -0.5 0 0.266406 0.5625 1.26218e-29 0.0806588 -0.5625 1.00974e-28
0.0806641 0.25 0 0.514016 -0.25 2.52435e-29 0.514052 3.06549e-13 0 0.575924
-0.0625 0 0.575924 0.0625 0 0.575924 0.5625 -3.21432e-18 0.142568 -0.5625
-4.40015e-18 0.142578 0.4375 3.7915e-18 0.390203 -0.4375 1.7368e-18 0.390234 0.375 7.24633e-19
0.452107 -0.375 -1.3287e-18 0.452148 0.125 -2.45194e-18 0.575924 -0.125 -6.0933e-18 0.575942
0.5 0 0.328294 -0.5 0 0.32832 0.5625 0 0.204477 -0.5625
0 0.204492 0.3125 6.76102e-18 0.514016 -0.3125 0 0.514055 0.1875 0
0.575924 -0.1875 0 0.575942 0.5625 -1.3001e-18 0.266385 -0.5625 0 0.266406
-0.625 0 0 0.625 1.26218e-29 0 -0.625 0 0.01875 0.625
1.26218e-29 0.01875 0.25 0 0.575924 -0.25 -2.90766e-18 0.575945 0.4375 -1.26218e-29
0.452112 -0.4375 0 0.452148 0.625 -4.21414e-18 0.0806588 -0.625 4.80757e-18 0.0806641
0.5 -1.26218e-29 0.390203 -0.5 0 0.390234 0.375 -1.26218e-29 0.514016 -0.375
2.52435e-29 0.514063 3.72107e-13 0 0.637832 -0.0625 4.88286e-18 0.637832 0.0625 6.77044e-18
0.637832 0.625 -6.31089e-30 0.142568 -0.625 0 0.142578 0.125 0 0.637832
-0.125 0 0.637852 0.5625 0 0.328294 -0.5625 0 0.32832 0.3125
0 0.575924 -0.3125 -2.52435e-29 0.575968 0.625 3.12974e-18 0.204477 -0.625 4.59612e-18
0.204492 0.1875 2.19058e-18 0.637832 -0.1875 -6.60238e-18 0.637852 0.5 4.92156e-18 0.452112
-0.5 -1.68639e-18 0.452148 0.4375 -1.26218e-29 0.514021 -0.4375 -5.65702e-18 0.514063 0.625
0 0.266385 -0.625 -2.01948e-28 0.266406 0.5625 9.44275e-19 0.390203 -0.5625 -6.46756e-18
0.390234 0.25 0 0.637832 -0.25 0 0.637856 0.375 -6.73569e-18 0.575924
-0.375 1.11066e-18 0.575977 0.6875 0 0 -0.6875 0 0 -0.6875
1.40717e-18 0.01875 0.6875 -3.97897e-18 0.01875 0.6875 0 0.0806588 -0.6875 0
0.0806641 4.56845e-13 3.87603e-18 0.69974 0.6875 1.27263e-18 0.142568 -0.6875 0 0.142578
-0.0625 2.52435e-29 0.69974 0.0625 2.52435e-29 0.69974 0.625 6.592e-18 0.328294 -0.625
0 0.32832 0.3125 -1.93524e-18 0.637832 -0.3125 4.04014e-18 0.637881 0.125 -4.70106e-19
0.69974 -0.125 3.12226e-18 0.699762 0.5 0 0.514021 -0.5 0 0.514063
0.6875 6.31089e-30 0.204477 -0.6875 -4.03897e-28 0.204492 0.5625 0 0.452112 -0.5625
-1.00974e-28 0.452148 0.4375 0 0.57593 -0.4375 0 0.575977 0.1875 -2.52435e-29
0.69974 -0.1875 2.52435e-29 0.699762 0.625 1.26218e-29 0.390203 -0.625 2.01948e-28 0.390234
0.6875 0 0.266385 -0.6875 -6.75978e-18 0.266406 0.375 0 0.637832 -0.375
0 0.637891 0.25 4.98213e-18 0.69974 -0.25 0 0.699767 0.75 1.26218e-29
0 -0.75 8.07794e-28 0 0.75 1.26218e-29 0.01875 -0.75 8.07794e-28 0.01875
0.75 -2.83834e-18 0.080661 -0.75 0 0.0806644 5.67701e-13 0 0.761648 0.6875
0 0.328294 -0.6875 0 0.32832 0.5625 -5.39072e-18 0.514021 -0.5625 0
0.514063 0.5 0 0.57593 -0.5 0 0.575977 0.75 0 0.142572
-0.75 8.07794e-28 0.142579 -0.0625 4.99955e-18 0.761648 0.0625 -5.04871e-29 0.761648 0.3125
2.52435e-29 0.69974 -0.3125 0 0.699795 0.625 -1.02629e-18 0.452112 -0.625 -1.62107e-19
0.452148 0.125 0 0.761648 -0.125 0 0.761672 0.4375 0 0.637838
-0.4375 4.29373e-19 0.637891 0.75 -6.31089e-30 0.204483 -0.75 -1.94537e-18 0.204493 0.1875
5.59539e-18 0.761648 -0.1875 0 0.761672 0.6875 -3.12847e-21 0.390203 -0.6875 1.7397e-18
0.390234 0.375 -7.78862e-19 0.69974 -0.375 9.53408e-20 0.699805 0.75 6.31089e-30 0.266394
-0.75 8.07794e-28 0.266408 0.25 0 0.761648 -0.25 0 0.761678 0.5625
0 0.57593 -0.5625 0 0.575977 0.625 1.26218e-29 0.514021 -0.625 0
0.514063 0.5 2.52435e-29 0.637838 -0.5 1.00974e-28 0.637891 -0.8125 0 0
0.8125 6.31089e-30 0 -0.8125 9.96706e-19 0.01875 0.8125 -5.64787e-18 0.01875 0.8125
0 0.0806623 -0.8125 -1.61559e-27 0.0806652 0.75 6.84495e-18 0.328305 -0.75 -8.07794e-28
0.328322 0.6875 -1.26218e-29 0.452112 -0.6875 0 0.452148 0.3125 0 0.761648
-0.3125 1.35227e-18 0.761708 7.16809e-13 0 0.823557 0.8125 2.44843e-18 0.142575 -0.8125
-5.09802e-18 0.142581 0.4375 0 0.699747 -0.4375 -5.04871e-29 0.699805 -0.0625 0
0.823557 0.0625 5.04871e-29 0.823557 0.125 3.3729e-18 0.823557 -0.125 -3.3446e-19 0.823582
0.8125 -6.31089e-30 0.204487 -0.8125 -1.61559e-27 0.204496 0.1875 0 0.823557 -0.1875
0 0.823582 0.75 0 0.390216 -0.75 8.07794e-28 0.390236 0.375 0
0.761648 -0.375 0 0.761719 0.625 2.89935e-18 0.57593 -0.625 2.69604e-18 0.575977
0.5625 3.66498e-18 0.637838 -0.5625 -1.66883e-18 0.637891 0.8125 -3.92683e-18 0.266399 -0.8125
0 0.266411 0.6875 1.26218e-29 0.514021 -0.6875 6.04692e-18 0.514063 0.5 3.95879e-18
0.699747 -0.5 6.89573e-18 0.699805 0.25 0 0.823557 -0.25 -5.33342e-18 0.823589
-0.875 0 0 0.875 6.31089e-30 0 -0.875 0 0.01875 0.875
6.31089e-30 0.01875 0.75 0 0.452127 -0.75 2.01392e-18 0.452151 0.8125 0
0.328312 -0.8125 -1.61559e-27 0.328327 0.4375 -1.09521e-18 0.761656 -0.4375 0 0.761719
0.875 -1.5406e-18 0.0806623 -0.875 -3.26522e-18 0.0806667 0.3125 5.04871e-29 0.823557 -0.3125
0 0.823622 9.26509e-13 5.04871e-29 0.885465 0.875 0 0.142575 -0.875 -3.23117e-27
0.142584 -0.0625 4.92932e-18 0.885465 0.0625 -6.03858e-18 0.885465 0.625 0 0.637838
-0.625 2.01948e-28 0.637891 0.125 -5.04871e-29 0.885465 -0.125 0 0.885492 0.6875
0 0.57593 -0.6875 0 0.575977 0.5625 -2.52435e-29 0.699747 -0.5625 0
0.699805 0.875 -6.36353e-18 0.204487 -0.875 0 0.204501 0.8125 2.30477e-18 0.390224
-0.8125 0 0.390243 0.375 3.82565e-19 0.823557 -0.375 1.65848e-18 0.823633 0.1875
-3.72016e-18 0.885465 -0.1875 7.34014e-19 0.885492 0.75 1.26218e-29 0.514038 -0.75 8.07794e-28
0.514066 0.5 0 0.761656 -0.5 0 0.761719 0.875 6.31089e-30 0.266399
-0.875 3.23117e-27 0.266418 0.25 -5.04871e-29 0.885465 -0.25 -5.04871e-29 0.8855 0.8125
0 0.452136 -0.8125 0 0.452159 0.4375 -5.04871e-29 0.823565 -0.4375 0
0.823633 0.875 -5.88015e-18 0.328312 -0.875 -6.83729e-18 0.328335 -0.9375 0 0
0.9375 -6.31089e-30 0 -0.9375 2.78604e-18 0.01875 0.9375 6.36076e-18 0.01875 0.6875
9.03089e-19 0.637838 -0.6875 6.40813e-18 0.637891 0.625 -2.58188e-18 0.699747 -0.625 2.61625e-18
0.699805 0.3125 6.49955e-19 0.885465 -0.3125 -4.36459e-18 0.885535 0.9375 -6.31089e-30 0.0806623
-0.9375 0 0.0806687 0.75 3.51659e-18 0.575949 -0.75 8.07794e-28 0.57598 0.5625
-2.52435e-29 0.761656 -0.5625 -1.43321e-18 0.761719 1.24031e-12 6.80881e-18 0.947373 0.9375 -6.07622e-18
0.142575 -0.9375 6.30495e-18 0.142588 -0.0625 0 0.947373 0.0625 0 0.947373
0.125 4.7731e-18 0.947373 -0.125 6.54495e-19 0.947403 0.875 0 0.390224 -0.875
0 0.390253 0.9375 0 0.204487 -0.9375 6.46235e-27 0.204507 0.8125 4.92265e-18
0.514049 -0.8125 0 0.514075 0.375 5.04871e-29 0.885465 -0.375 0 0.885547
0.5 0 0.823565 -0.5 0 0.823633 0.1875 0 0.947373 -0.1875
[...]
POINT_DATA 8354
FIELD attributes 1
U 3 8354 float
30 0 0 30.006 -1.64747e-06 -7.74477e-05 30 0 0 30 0
0 30.0061 -1.67737e-06 -7.28121e-05 30.0059 -1.61767e-06 -8.18943e-05 30.0063 -1.73001e-06 -0.000199601
30.0064 -1.76059e-06 -0.000186857 30.0062 -1.69962e-06 -0.000211617 30 0 0 30
0 0 30.0062 -1.70708e-06 -6.80057e-05 30.0058 -1.58786e-06 -8.61146e-05 30.0064 -1.76206e-06
-0.000354882 30.0065 -1.79119e-06 -0.000173487 30.0061 -1.66922e-06 -0.000222881 30.0065 -1.7929e-06 -0.000332692
30.0063 -1.73143e-06 -0.000375882 30 0 0 30 0 0 30.0062
-1.73645e-06 -6.3049e-05 30.0057 -1.55808e-06 -9.00847e-05 30.0065 -1.82376e-06 -0.000309481 30.0061 -1.70079e-06
-0.000395607 30.0065 -1.82148e-06 -0.000159724 30.006 -1.63882e-06 -0.000233368 30.0064 -1.78091e-06 -0.000521488
30.0065 -1.81193e-06 -0.000489819 30.0063 -1.75009e-06 -0.000551516 30.0066 -1.85436e-06 -0.000285524 30.006
-1.67015e-06 -0.000413976 30.0066 -1.8429e-06 -0.000456737 30.0062 -1.71926e-06 -0.000579775 30 0
0 30 0 0 30.0063 -1.7658e-06 -5.80099e-05 30.0055 -1.52837e-06 -9.37915e-05
30.0066 -1.85168e-06 -0.000145737 30.0058 -1.60861e-06 -0.000243029 30.0065 -1.78648e-06 -0.000687103 30.0066
-1.81788e-06 -0.000645703 30.0063 -1.75526e-06 -0.00072636 30.0067 -1.87363e-06 -0.000422437 30.0061 -1.68848e-06
-0.000606096 30.0067 -1.88489e-06 -0.000261012 30.0059 -1.63968e-06 -0.000430912 30.0066 -1.84918e-06 -0.000602411
30.0062 -1.72406e-06 -0.000763304 30 0 0 30 0 0 30.0064
-1.79519e-06 -5.29026e-05 30.0054 -1.49853e-06 -9.72227e-05 30.0067 -1.88184e-06 -0.000131502 30.0057 -1.57827e-06
-0.000251847 30.0068 -1.90428e-06 -0.00038717 30.006 -1.65793e-06 -0.000630383 30.0067 -1.88021e-06 -0.000557468
30.0061 -1.69293e-06 -0.00079771 30.0065 -1.78795e-06 -0.000862995 30.0064 -1.7564e-06 -0.000911767 30.0066
-1.81969e-06 -0.000811553 30.0068 -1.91532e-06 -0.000235986 30.0058 -1.60913e-06 -0.000446359 30.0067 -1.85135e-06
-0.000757719 30.0062 -1.72487e-06 -0.000957634 30.0068 -1.91119e-06 -0.000511169 30.006 -1.66206e-06 -0.00082946
30.0068 -1.93488e-06 -0.000351076 30.0058 -1.62731e-06 -0.000652527 30 0 0 30
0 0 30.0064 -1.82436e-06 -4.76895e-05 30.0053 -1.46862e-06 -0.000100366 30.0067 -1.88274e-06
-0.000701819 30.0061 -1.69338e-06 -0.00100034 30.0067 -1.91177e-06 -0.000116924 30.0056 -1.54784e-06 -0.000259797
30.0065 -1.79489e-06 -0.00103946 30.0066 -1.82703e-06 -0.000977607 30.0064 -1.76295e-06 -0.00109808 30.0068
-1.94546e-06 -0.00021047 30.0056 -1.57851e-06 -0.000460264 30.0067 -1.85909e-06 -0.00091286 30.0063 -1.73105e-06
-0.00115319 30.0069 -1.94214e-06 -0.00046376 30.0058 -1.63111e-06 -0.000858409 30.0068 -1.91409e-06 -0.000644178
30.006 -1.66211e-06 -0.00103972 30.0069 -1.96513e-06 -0.000314404 30.0057 -1.59657e-06 -0.000672447 30.0068
-1.8909e-06 -0.000845601 30.0061 -1.69915e-06 -0.00120448 30 0 0 30 0
0 30.0052 -1.43877e-06 -0.000103202 30.0064 -1.85336e-06 -4.24044e-05 30.0068 -1.94144e-06 -0.000102165
30.0054 -1.51756e-06 -0.000266863 30.0066 -1.80775e-06 -0.00122812 30.0069 -1.94535e-06 -0.00058517 30.0058
-1.63079e-06 -0.00107563 30.0067 -1.84052e-06 -0.00115527 30.0065 -1.77514e-06 -0.00129713 30.0069 -1.97271e-06
-0.00041556 30.0057 -1.60003e-06 -0.000884465 30.0069 -1.97539e-06 -0.000184687 30.0055 -1.54806e-06 -0.000472581
30.0069 -1.92264e-06 -0.000776228 30.006 -1.66745e-06 -0.00125175 30.0068 -1.87318e-06 -0.00107897 30.0064
-1.7426e-06 -0.00136196 30.0069 -1.99528e-06 -0.000277275 30.0055 -1.56597e-06 -0.000690044 30.0069 -1.90553e-06
-0.000999676 30.0062 -1.71009e-06 -0.00142225 30.0069 -1.97627e-06 -0.000525139 30.0057 -1.59937e-06 -0.00110794
30.0069 -1.95428e-06 -0.000705184 30.0059 -1.63573e-06 -0.00129482 30 0 0 30
0 0 30.005 -1.40902e-06 -0.000105708 30.0065 -1.88233e-06 -3.70121e-05 30.0068 -1.97117e-06
-8.72172e-05 30.0053 -1.48739e-06 -0.000273018 30.007 -2.00311e-06 -0.000366813 30.0056 -1.56906e-06 -0.000907528
30.0068 -1.82639e-06 -0.00141477 30.007 -1.93781e-06 -0.000917865 30.0061 -1.67778e-06 -0.00147775 30.0069
-1.85974e-06 -0.00133045 30.0066 -1.79314e-06 -0.00149459 30.0069 -2.00524e-06 -0.000158636 30.0053 -1.5176e-06
-0.000483253 30.007 -1.89288e-06 -0.00124211 30.0065 -1.76001e-06 -0.00156954 30.007 -2.02523e-06 -0.00023998
30.0054 -1.53554e-06 -0.000705237 30.007 -1.98557e-06 -0.000632909 30.0057 -1.60393e-06 -0.00133353 30.007
-2.00701e-06 -0.000464523 30.0055 -1.5681e-06 -0.00113657 30.0071 -1.92572e-06 -0.00115026 30.0064 -1.72694e-06
-0.00163921 30.0071 -1.96998e-06 -0.000834056 30.006 -1.64543e-06 -0.00152826 30 0 0
30 0 0 30.0049 -1.37903e-06 -0.000107884 30.0065 -1.91106e-06 -3.15955e-05 30.007
-2.03344e-06 -0.000317993 30.0054 -1.53846e-06 -0.00092755 30.0068 -2.00074e-06 -7.2707e-05 30.0051 -1.45703e-06
-0.000278307 30.0071 -1.95847e-06 -0.00105547 30.0062 -1.69408e-06 -0.00170332 30.0069 -1.84475e-06 -0.00160405
30.0067 -1.81095e-06 -0.00169483 30.007 -1.87862e-06 -0.00150804 30.0069 -2.03494e-06 -0.00013311 30.0052
-1.48697e-06 -0.000492261 30.007 -2.01673e-06 -0.000559896 30.0056 -1.57231e-06 -0.00136777 30.0071 -2.0018e-06
-0.000748785 30.0058 -1.613e-06 -0.00157357 30.0071 -1.91225e-06 -0.00140734 30.0066 -1.7773e-06 -0.00177994
30.007 -2.03774e-06 -0.000403693 30.0054 -1.53706e-06 -0.0011615 30.007 -2.0549e-06 -0.000203104 30.0052
-1.50497e-06 -0.000717916 30.0072 -1.99111e-06 -0.000958335 30.0061 -1.66117e-06 -0.00176163 30.0072 -1.94561e-06
-0.00130255 30.0065 -1.74369e-06 -0.00185891 30.007 -2.06335e-06 -0.000269676 30.0053 -1.50775e-06 -0.000944501
30 0 0 30 0 0 30.0047 -1.34891e-06 -0.000109754 30.0065
-1.9394e-06 -2.64074e-05 30.0073 -1.97884e-06 -0.00119433 30.0063 -1.71026e-06 -0.00193139 30.0072 -2.03347e-06
-0.000662622 30.0056 -1.58071e-06 -0.00161353 30.0068 -2.02985e-06 -5.89375e-05 30.005 -1.42662e-06 -0.000282889
30.0071 -2.04788e-06 -0.000486611 30.0054 -1.54083e-06 -0.00139747 30.0073 -2.0234e-06 -0.000859489 30.0059
-1.62817e-06 -0.00181395 30.0069 -1.86045e-06 -0.00179643 30.0068 -1.8259e-06 -0.0018988 30.0071 -1.89507e-06
-0.00168804 30.0069 -2.06423e-06 -0.000108519 30.005 -1.4565e-06 -0.000499662 30.0072 -1.92942e-06 -0.00157425
30.0067 -1.79148e-06 -0.00199466 30.007 -2.06815e-06 -0.000343143 30.0052 -1.5059e-06 -0.0011828 30.0073
-2.01194e-06 -0.00108336 30.0062 -1.67683e-06 -0.00199721 30.007 -2.08448e-06 -0.000166602 30.0051 -1.47438e-06
-0.000727965 30.0073 -1.96352e-06 -0.00145576 30.0065 -1.7571e-06 -0.00208346 30.0072 -2.06515e-06 -0.000576116
30.0055 -1.5487e-06 -0.00164805 30.0073 -2.05556e-06 -0.000759588 30.0058 -1.59529e-06 -0.00186014 30.007
-2.09307e-06 -0.000221482 30.0051 -1.47685e-06 -0.000958402 30.0071 -2.0787e-06 -0.000413571 30.0052 -1.50921e-06
-0.00142262 30.0074 -1.99748e-06 -0.0013333 30.0064 -1.72288e-06 -0.00216481 30.0074 -2.04472e-06 -0.000970388
30.006 -1.64333e-06 -0.00205608 30 0 0 30 0 0 30.0046
-1.31915e-06 -0.000111246 30.0065 -1.96741e-06 -2.14509e-05 30.0068 -2.05889e-06 -4.55144e-05 30.0048 -1.3966e-06
-0.000286901 30.0071 -1.87842e-06 -0.00200351 30.0069 -2.09324e-06 -8.4379e-05 30.0049 -1.42636e-06 -0.000505503
30.0069 -1.84297e-06 -0.00211844 30.0072 -1.9139e-06 -0.00188168 30.0071 -2.09817e-06 -0.000283004 30.0051
-1.47469e-06 -0.00120064 30.0074 -2.03127e-06 -0.00120767 30.0062 -1.68867e-06 -0.00223853 30.0073 -1.94908e-06
-0.00175369 30.0068 -1.80764e-06 -0.00222594 30.0074 -2.08773e-06 -0.000659275 30.0056 -1.56281e-06 -0.00190015
30.007 -2.11355e-06 -0.000130753 30.0049 -1.44417e-06 -0.000735172 30.0072 -2.0965e-06 -0.000489841 30.0053
-1.51663e-06 -0.00167699 30.0074 -2.07739e-06 -0.000856165 30.0058 -1.60998e-06 -0.00210788 30.0074 -1.98398e-06
-0.00162029 30.0066 -1.77236e-06 -0.00232537 30.0071 -2.10913e-06 -0.000341108 30.0051 -1.4776e-06 -0.00144321
30.007 -2.12251e-06 -0.000173984 30.0049 -1.44639e-06 -0.000969233 30.0075 -2.06472e-06 -0.00107973 30.006
-1.65441e-06 -0.00230427 30.0075 -2.01876e-06 -0.00148237 30.0064 -1.73728e-06 -0.00241631 30 0
0 30 0 0 30.0065 -1.99572e-06 -1.6695e-05 30.0044 -1.28938e-06 -0.000112096
30.0068 -2.08809e-06 -3.22052e-05 30.0047 -1.36678e-06 -0.000290169 30.0072 -1.89962e-06 -0.0022194 30.0071
-2.1279e-06 -0.000223757 30.0049 -1.44385e-06 -0.00121524 30.0074 -2.11952e-06 -0.000559218 30.0054 -1.53035e-06
-0.00193397 30.0075 -2.11007e-06 -0.000741441 30.0057 -1.57698e-06 -0.00215262 30.0069 -2.12236e-06 -6.02333e-05
30.0047 -1.39647e-06 -0.000509591 30.0071 -1.8632e-06 -0.00234759 30.0073 -1.936e-06 -0.00208336 30.0076
-2.05336e-06 -0.00134082 30.0063 -1.7022e-06 -0.00249854 30.0072 -2.12738e-06 -0.000404329 30.0051 -1.48447e-06
-0.00170021 30.0075 -1.97206e-06 -0.00194028 30.0069 -1.82692e-06 -0.00246734 30.0076 -2.09806e-06 -0.000950344
30.0058 -1.62031e-06 -0.00236188 30.007 -2.1426e-06 -9.55562e-05 30.0048 -1.41421e-06 -0.000739127 30.0076
-2.00781e-06 -0.00179104 30.0067 -1.79071e-06 -0.00257791 30.0071 -2.13924e-06 -0.000269742 30.0049 -1.44633e-06
-0.00145924 30.0076 -2.08758e-06 -0.00119661 30.0061 -1.66704e-06 -0.00257167 30.007 -2.15188e-06 -0.000127734
30.0048 -1.41612e-06 -0.000976884 30.0077 -2.04345e-06 -0.00163663 30.0066 -1.75473e-06 -0.00267886 30.0075
-2.14234e-06 -0.000626991 30.0055 -1.54399e-06 -0.00219039 30.0074 -2.15082e-06 -0.000460063 30.0052 -1.49777e-06
-0.00196165 30.0076 -2.13138e-06 -0.000820368 30.0057 -1.58646e-06 -0.00241134 30 0 0
30 0 0 30.0043 -1.25911e-06 -0.000112154 30.0065 -2.02473e-06 -1.21003e-05 30.0068
-2.11733e-06 -1.88373e-05 30.0045 -1.33706e-06 -0.000292601 30.007 -2.15756e-06 -0.000165956 30.0048 -1.41323e-06
-0.0012269 30.0072 -2.15794e-06 -0.000320093 30.005 -1.4527e-06 -0.00171743 30.0077 -2.07893e-06 -0.00147809
30.0064 -1.71881e-06 -0.00276993 30.0074 -1.92166e-06 -0.00245148 30.0069 -2.15151e-06 -3.60403e-05 30.0046
-1.36678e-06 -0.000511449 30.0077 -2.12166e-06 -0.00105075 30.0059 -1.63202e-06 -0.00263553 30.0072 -1.88415e-06
-0.00259381 30.0075 -1.95915e-06 -0.00230019 30.0076 -1.9963e-06 -0.00214089 30.007 -1.84677e-06 -0.00272652
30.007 -2.1718e-06 -6.096e-05 30.0046 -1.38447e-06 -0.000738959 30.0078 -2.03315e-06 -0.00197456 30.0069
-1.80948e-06 -0.0028488 30.0071 -2.16926e-06 -0.000199999 30.0047 -1.41537e-06 -0.00147067 30.0078 -2.11398e-06
-0.00131651 30.0062 -1.68276e-06 -0.00285075 30.0075 -2.17411e-06 -0.00051357 30.0053 -1.51094e-06 -0.00222145
30.0076 -2.16428e-06 -0.000690705 30.0055 -1.55258e-06 -0.0024527 30.007 -2.18135e-06 -8.25492e-05 30.0046
-1.38599e-06 -0.000981477 30.0074 -2.18181e-06 -0.000362409 30.0051 -1.46561e-06 -0.00198324 30.0077 -2.15569e-06
-0.000904231 30.0057 -1.59731e-06 -0.00269007 30.0079 -2.06986e-06 -0.00180233 30.0067 -1.77245e-06 -0.00296015
30 0 0 30 0 0 30.0041 -1.22845e-06 -0.000112434 30.0064
-2.05345e-06 -7.52583e-06 30.0072 -2.18842e-06 -0.000237703 30.0048 -1.42116e-06 -0.00172826 30.007 -2.18727e-06
-0.000109565 30.0046 -1.38277e-06 -0.00123669 30.0079 -2.14886e-06 -0.00115306 30.006 -1.64682e-06 -0.00292113
30.0068 -2.14592e-06 -5.77688e-06 30.0044 -1.3079e-06 -0.000295742 30.0079 -2.10637e-06 -0.00162537 30.0065
-1.73546e-06 -0.00306028 30.0075 -1.948e-06 -0.00269933 30.0069 -2.18009e-06 -1.26654e-05 30.0044 -1.3376e-06
-0.000510632 30.0074 -1.90904e-06 -0.0028568 30.0077 -1.98695e-06 -0.00253169 30.0076 -2.19667e-06 -0.00056222
30.0053 -1.51874e-06 -0.00248605 30.0078 -2.02555e-06 -0.00235492 30.0072 -1.87025e-06 -0.00300337 30.0075
-2.20556e-06 -0.00040189 30.0051 -1.47829e-06 -0.00224619 30.0077 -2.18927e-06 -0.000758076 30.0055 -1.56264e-06
-0.00273526 30.0069 -2.20047e-06 -2.74592e-05 30.0045 -1.35497e-06 -0.000732651 30.0071 -2.19927e-06 -0.000132055
30.0046 -1.38462e-06 -0.0014776 30.008 -2.14246e-06 -0.00144496 30.0063 -1.69836e-06 -0.0031488 30.008
-2.06383e-06 -0.00217016 30.007 -1.83154e-06 -0.00313812 30.0074 -2.21273e-06 -0.000266901 30.0049 -1.43362e-06
-0.00199887 30.0079 -2.18367e-06 -0.000988843 30.0058 -1.61132e-06 -0.00298106 30.007 -2.21026e-06 -3.87528e-05
30.0045 -1.35586e-06 -0.00098413 30.0081 -2.10193e-06 -0.00197868 30.0068 -1.79306e-06 -0.0032605 30.0072
-2.21882e-06 -0.000157548 30.0046 -1.38983e-06 -0.00173174 30.0081 -2.17838e-06 -0.0012624 30.0061 -1.66141e-06
-0.0032255 30.007 -2.21646e-06 -5.49332e-05 30.0044 -1.35252e-06 -0.00124805 30 0 0
30 0 0 30.004 -1.19998e-06 -0.000116654 30.0064 -2.08133e-06 -3.07321e-06 30.0076
-2.22874e-06 -0.000435752 30.0051 -1.48528e-06 -0.00251162 30.0078 -2.22234e-06 -0.000613288 30.0053 -1.52799e-06
-0.00277106 30.0082 -2.13978e-06 -0.00178181 30.0066 -1.75459e-06 -0.00337022 30.0068 -2.17404e-06 6.74102e-06
30.0042 -1.28008e-06 -0.000303756 30.0075 -2.2369e-06 -0.000292669 30.0049 -1.4459e-06 -0.00226535 30.0079
-2.21802e-06 -0.000825064 30.0056 -1.57598e-06 -0.00303062 30.0078 -1.988e-06 -0.00296938 30.0069 -2.20836e-06
9.58268e-06 30.0043 -1.30929e-06 -0.000507462 30.0076 -1.94736e-06 -0.00314357 30.008 -2.02855e-06 -0.00278368
30.0081 -2.06869e-06 -0.00258764 30.0074 -1.90689e-06 -0.0033054 30.0071 -2.22877e-06 -6.62764e-05 30.0044
-1.35426e-06 -0.00148009 30.0069 -2.22876e-06 4.64307e-06 30.0043 -1.32631e-06 -0.000717714 30.0073 -2.24351e-06
-0.000174015 30.0047 -1.4019e-06 -0.00200878 30.0082 -2.1772e-06 -0.00158102 30.0064 -1.71604e-06 -0.00346682
30.0081 -2.21421e-06 -0.001079 30.0059 -1.62484e-06 -0.0032904 30.0082 -2.10846e-06 -0.00238252 30.0072
-1.86647e-06 -0.00345387 30.007 -2.23877e-06 3.40508e-06 30.0043 -1.32615e-06 -0.000986925 30.0084 -2.14803e-06
-0.00216978 30.007 -1.82626e-06 -0.00358839 30.0077 -2.25509e-06 -0.000470837 30.0051 -1.49378e-06 -0.00279749
30.0076 -2.26066e-06 -0.00031212 30.0049 -1.45213e-06 -0.00252983 30.0072 -2.24872e-06 -7.99985e-05 30.0045
-1.3588e-06 -0.00172448 30.0079 -2.25181e-06 -0.000662865 30.0054 -1.54064e-06 -0.00306996 30.0083 -2.21445e-06
-0.00137778 30.0062 -1.67769e-06 -0.00355008 30.007 -2.24526e-06 -2.34197e-06 30.0043 -1.32268e-06 -0.00126591
30.0075 -2.26806e-06 -0.000186526 30.0048 -1.41379e-06 -0.00228049 30.0081 -2.24955e-06 -0.000896107 30.0057
-1.58845e-06 -0.00334368 30.0085 -2.18734e-06 -0.00195092 30.0068 -1.78608e-06 -0.00370862 30 0
0 30 0 0 30.0038 -1.18017e-06 -0.000132764 30.0064 -2.10892e-06 1.2026e-06
30.0067 -2.20211e-06 1.86752e-05 30.0041 -1.25859e-06 -0.000316004 30.0081 -2.04061e-06 -0.00325548 30.0068
-2.23666e-06 3.07087e-05 30.0041 -1.28143e-06 -0.0005048 30.0083 -2.08238e-06 -0.00305045 30.0079 -1.99872e-06
-0.00344743 30.0073 -2.27379e-06 -8.42163e-05 30.0045 -1.37028e-06 -0.00201301 30.007 -2.25792e-06 -3.02602e-06
30.0043 -1.32426e-06 -0.00147799 30.0083 -2.25159e-06 -0.0011736 30.0059 -1.63967e-06 -0.00362006 30.0084
-2.12376e-06 -0.00283365 30.0077 -1.95698e-06 -0.00362533 30.0085 -2.22615e-06 -0.00172761 30.0066 -1.7458e-06
-0.00381409 30.0069 -2.25701e-06 3.5248e-05 30.0042 -1.30383e-06 -0.000700916 30.0077 -2.28768e-06 -0.000331667
30.0049 -1.45981e-06 -0.00281454 30.0079 -2.28529e-06 -0.000503365 30.0052 -1.50577e-06 -0.00309931 30.0086
-2.16472e-06 -0.00260653 30.0075 -1.91531e-06 -0.00378813 30.0076 -2.29237e-06 -0.000192059 30.0047 -1.41925e-06
-0.00254127 30.0081 -2.28432e-06 -0.00071504 30.0054 -1.55217e-06 -0.00338563 30.0069 -2.26718e-06 4.36768e-05
30.0041 -1.29877e-06 -0.000987195 30.0087 -2.20548e-06 -0.00237071 30.0073 -1.87387e-06 -0.00393519 30.0071
-2.27829e-06 -5.50418e-06 30.0043 -1.32811e-06 -0.00170076 30.0086 -2.26475e-06 -0.00150154 30.0063 -1.70566e-06
-0.00390458 30.0074 -2.29874e-06 -8.40198e-05 30.0046 -1.38195e-06 -0.00229548 30.0083 -2.28819e-06 -0.000970006
30.0057 -1.60181e-06 -0.0036769 30.0069 -2.27392e-06 4.78755e-05 30.0041 -1.29915e-06 -0.00128331 30.0088
-2.24595e-06 -0.00212792 30.007 -1.83253e-06 -0.00406617 30 0 0 30.0063 -2.13621e-06
5.38316e-06 30.0067 -2.22991e-06 3.00717e-05 30.0079 -2.3186e-06 -0.000347646 30.005 -1.47114e-06 -0.00311903
30.0073 -2.30375e-06 1.92645e-06 30.0043 -1.3391e-06 -0.00201091 30.0084 -2.09205e-06 -0.00355475 30.0086
-2.30317e-06 -0.00127442 30.0061 -1.66594e-06 -0.00398014 30.0068 -2.26468e-06 5.06637e-05 30.0077 -2.32003e-06
-0.000196629 30.0047 -1.42606e-06 -0.00282168 30.0081 -2.31876e-06 -0.000537084 30.0052 -1.51638e-06 -0.00341667
30.0085 -2.13503e-06 -0.00332936 30.0082 -2.04894e-06 -0.00376524 30.007 -2.28691e-06 5.73097e-05 30.0041
-1.29702e-06 -0.00147198 30.0089 -2.28587e-06 -0.00188004 30.0068 -1.79111e-06 -0.00418061 30.0087 -2.17764e-06
-0.00309051 30.0079 -2.00597e-06 -0.00395972 30.0068 -2.28488e-06 6.42797e-05 30.0075 -2.32357e-06 -7.62604e-05
30.0045 -1.38682e-06 -0.00254694 30.0083 -2.32421e-06 -0.000768526 30.0055 -1.56416e-06 -0.00372076 30.0089
-2.21982e-06 -0.00283985 30.0077 -1.9631e-06 -0.00413709 30.0069 -2.29518e-06 8.18418e-05 30.0071 -2.30766e-06
6.55032e-05 30.0041 -1.30397e-06 -0.00167176 30.009 -2.26176e-06 -0.00257923 30.0075 -1.92045e-06 -0.00429664
30.0089 -2.32553e-06 -0.00162904 30.0065 -1.74985e-06 -0.00427834 30.0074 -2.32909e-06 1.42283e-05 30.0044
-1.35059e-06 -0.00231623 30.0086 -2.34101e-06 -0.00104802 30.0058 -1.62642e-06 -0.00404088 30.0069 -2.30216e-06
9.54214e-05 30.0078 -2.35163e-06 -0.000196688 30.0048 -1.43669e-06 -0.00312963 30.0081 -2.353e-06 -0.00036348
30.005 -1.4809e-06 -0.00343744 30.0091 -2.30335e-06 -0.00231063 30.0072 -1.87795e-06 -0.004438 30.0076
-2.35184e-06 -6.65392e-05 30.0045 -1.39263e-06 -0.00281664 30.0083 -2.35985e-06 -0.000570621 30.0053 -1.52702e-06
-0.00375182 30.0072 -2.33347e-06 8.39397e-05 30.0042 -1.31112e-06 -0.00200261 30 0 0
30 0 0 30.0063 -2.16318e-06 9.29926e-06 30.0036 -1.14276e-06 -0.000179449 30.009
-2.36495e-06 -0.00137685 30.0063 -1.70912e-06 -0.00435951 30.0066 -2.25734e-06 4.09241e-05 30.0069 -2.31545e-06
0.000114398 30.0086 -2.13885e-06 -0.0038734 30.0075 -2.35442e-06 3.4612e-05 30.0044 -1.35486e-06 -0.00254914
30.0067 -2.29224e-06 6.95896e-05 30.0088 -2.18337e-06 -0.0036258 30.0084 -2.09416e-06 -0.00410407 30.0092
-2.34439e-06 -0.00203621 30.0086 -2.37823e-06 -0.000824073 30.007 -1.83543e-06 -0.00456066 30.0056 -1.58703e-06
-0.00408685 30.0038 -1.22488e-06 -0.000532384 30.009 -2.22747e-06 -0.00336287 30.0081 -2.04955e-06 -0.0043165
30.0068 -2.31227e-06 9.16215e-05 30.0091 -2.27114e-06 -0.00308644 30.0079 -2.00504e-06 -0.00450962 30.0073
-2.35919e-06 0.000107664 30.0042 -1.32624e-06 -0.00233735 30.007 -2.33655e-06 0.000132644 30.009 -2.40376e-06
-0.00112551 30.006 -1.66877e-06 -0.00442441 30.0068 -2.32275e-06 0.000117737 30.008 -2.38693e-06 -0.000195355
30.0048 -1.44572e-06 -0.00344938 30.0092 -2.38513e-06 -0.00175818 30.0067 -1.79314e-06 -0.00466456 30.0038
-1.24015e-06 -0.0010008 30.0078 -2.38411e-06 -5.14341e-05 30.0046 -1.40257e-06 -0.00313178 30.0093 -2.31454e-06
-0.00279861 30.0076 -1.96074e-06 -0.00468258 30.0083 -2.39525e-06 -0.000377712 30.005 -1.49028e-06 -0.00377027
30.0076 -2.38327e-06 5.78451e-05 30.0043 -1.35966e-06 -0.00279663 30.0086 -2.41504e-06 -0.000604248 30.0054
-1.54818e-06 -0.00411803 30.0068 -2.32997e-06 0.000140091 30.0094 -2.35751e-06 -0.00250166 30.0073 -1.91655e-06
-0.00483493 30.0071 -2.36271e-06 0.00016141 30.0093 -2.42558e-06 -0.0014788 30.0064 -1.75141e-06 -0.00474994
30.0074 -2.385e-06 0.000139938 30.0042 -1.32584e-06 -0.00254962 30.009 -2.44194e-06 -0.000877004 30.0058
-1.62862e-06 -0.00447342 30 0 0 30.0062 -2.18985e-06 1.28289e-05 30.0066 -2.28443e-06
5.11702e-05 30.0069 -2.34355e-06 0.000167989 30.0038 -1.23965e-06 -0.00146369 30.0095 -2.39989e-06 -0.00219805
30.0071 -1.87237e-06 -0.0049662 30.0088 -2.18541e-06 -0.00421985 30.0066 -2.31943e-06 8.75294e-05 30.0091
-2.23157e-06 -0.00394738 30.0086 -2.13905e-06 -0.0044731 30.0093 -2.27729e-06 -0.0036575 30.0083 -2.09273e-06
-0.00470569 30.008 -2.42029e-06 -3.37855e-05 30.0046 -1.41102e-06 -0.00345611 30.0082 -2.43032e-06 -0.0001911
30.0048 -1.45395e-06 -0.00377647 30.0067 -2.33935e-06 0.000117152 30.0077 -2.4162e-06 8.726e-05 30.0044
-1.36885e-06 -0.00312653 30.0086 -2.45158e-06 -0.000390166 30.0051 -1.50978e-06 -0.00413429 30.0072 -2.38881e-06
0.000195818 30.0094 -2.32255e-06 -0.00335228 30.0081 -2.0465e-06 -0.00491646 30.0093 -2.46537e-06 -0.0012004
30.0062 -1.71018e-06 -0.00481726 30.007 -2.36502e-06 0.000195621 30.0095 -2.44193e-06 -0.00189033 30.0068