# vtk DataFile Version 2.0
track0
ASCII
DATASET POLYDATA
POINTS 15780 float
-1.001 -0.05 0.0011
-1.0008 -0.05 0.0011
-1.0006 -0.05 0.0011
-1.0004 -0.05 0.0011
-1.0002 -0.05 0.0011
-1 -0.05 0.0011
-0.9875 -0.05 0.0011
-0.975 -0.05 0.0011
-0.9625 -0.05 0.0011
-0.95 -0.05 0.0011
-0.9375 -0.05 0.00109999
-0.925 -0.05 0.00109999
-0.9125 -0.05 0.00109999
-0.9 -0.05 0.00109999
-0.8875 -0.05 0.00109999
-0.875 -0.05 0.00109999
-0.8625 -0.05 0.00109999
-0.85 -0.05 0.00109999
-0.8375 -0.05 0.00109998
-0.825 -0.0500001 0.00109998
-0.8125 -0.0500001 0.00109998
-0.8 -0.0500001 0.00109998
-0.7875 -0.0500001 0.00109998
-0.775 -0.0500001 0.00109998
-0.7625 -0.0500001 0.00109998
-0.75 -0.0500001 0.00109998
-0.7375 -0.0500001 0.00109997
-0.725 -0.0500001 0.00109997
-0.7125 -0.0500001 0.00109997
-0.7 -0.0500001 0.00109997
-0.6875 -0.0500001 0.00109997
-0.675 -0.0500001 0.00109997
-0.6625 -0.0500001 0.00109997
-0.65 -0.0500001 0.00109996
-0.6375 -0.0500001 0.00109996
-0.625 -0.0500001 0.00109996
-0.6125 -0.0500001 0.00109996
-0.6 -0.0500001 0.00109996
-0.5875 -0.0500001 0.00109996
-0.575 -0.0500001 0.00109996
-0.5625 -0.0500001 0.00109996
-0.55 -0.0500001 0.00109995
-0.5375 -0.0500001 0.00109995
-0.525 -0.0500001 0.00109995
-0.5125 -0.0500001 0.00109995
-0.5 -0.0500001 0.00109995
-0.4875 -0.0500001 0.00109995
-0.475 -0.0500001 0.00109995
-0.4625 -0.0500001 0.00109994
-0.45 -0.0500002 0.00109994
-0.4375 -0.0500002 0.00109994
-0.425 -0.0500002 0.00109994
-0.4125 -0.0500002 0.00109994
-0.4 -0.0500002 0.00109994
-0.3875 -0.0500002 0.00109994
-0.375 -0.0500002 0.00109994
-0.3625 -0.0500002 0.00109993
-0.35 -0.0500002 0.00109993
-0.3375 -0.0500002 0.00109993
-0.325 -0.0500002 0.00109993
-0.3125 -0.0500002 0.00109993
-0.3 -0.0500002 0.00109993
-0.2875 -0.0500002 0.00109993
-0.275 -0.0500002 0.00109993
-0.2625 -0.0500002 0.00109992
-0.25 -0.0500002 0.00109992
-0.2375 -0.0500002 0.00109992
-0.225 -0.0500002 0.00109992
-0.2125 -0.0500002 0.00109992
-0.2 -0.0500002 0.00109992
-0.1875 -0.0500002 0.00109992
-0.175 -0.0500002 0.00109992
-0.1625 -0.0500002 0.00109991
-0.15 -0.0500002 0.00109991
-0.1375 -0.0500002 0.00109991
-0.125 -0.0500002 0.00109991
-0.1125 -0.0500002 0.00109991
-0.1 -0.0500002 0.00109991
-0.0875 -0.0500002 0.00109991
-0.075 -0.0500002 0.00109991
-0.0625 -0.0500002 0.00109991
-0.05 -0.0500003 0.0010999
-0.0375 -0.0500003 0.0010999
-0.025 -0.0500003 0.0010999
-0.0125 -0.0500003 0.0010999
2.10607e-13 -0.0500003 0.0010999
0.0125 -0.0500003 0.0010999
0.025 -0.0500003 0.0010999
0.0375 -0.0500003 0.0010999
0.05 -0.0500003 0.0010999
0.0625 -0.0500003 0.0010999
0.075 -0.0500003 0.0010999
0.0875 -0.0500003 0.0010999
0.1 -0.0500003 0.00109989
0.1125 -0.0500003 0.00109989
0.125 -0.0500003 0.00109989
0.1375 -0.0500003 0.00109989
0.15 -0.0500003 0.00109989
0.1625 -0.0500003 0.00109989
0.175 -0.0500003 0.00109989
0.1875 -0.0500003 0.00109989
0.2 -0.0500003 0.00109989
0.2125 -0.0500003 0.00109989
0.225 -0.0500003 0.00109989
0.2375 -0.0500003 0.00109989
0.25 -0.0500003 0.00109989
0.2625 -0.0500003 0.00109988
0.275 -0.0500003 0.00109988
0.2875 -0.0500003 0.00109988
0.3 -0.0500003 0.00109988
0.3125 -0.0500003 0.00109988
0.325 -0.0500003 0.00109988
0.3375 -0.0500003 0.00109988
0.35 -0.0500003 0.00109988
0.3625 -0.0500003 0.00109988
0.375 -0.0500003 0.00109988
0.3875 -0.0500003 0.00109988
0.4 -0.0500004 0.00109988
0.4125 -0.0500004 0.00109988
0.425 -0.0500004 0.00109988
0.4375 -0.0500004 0.00109988
0.45 -0.0500004 0.00109988
0.4625 -0.0500004 0.00109988
0.475 -0.0500004 0.00109988
0.4875 -0.0500004 0.00109988
0.5 -0.0500004 0.00109988
0.5125 -0.0500004 0.00109988
0.525 -0.0500004 0.00109988
0.5375 -0.0500004 0.00109988
0.55 -0.0500004 0.00109988
0.5625 -0.0500004 0.00109987
0.575 -0.0500004 0.00109987
0.5875 -0.0500004 0.00109987
0.6 -0.0500004 0.00109987
0.6125 -0.0500004 0.00109987
0.625 -0.0500004 0.00109987
0.6375 -0.0500004 0.00109987
0.65 -0.0500004 0.00109987
0.6625 -0.0500004 0.00109987
0.675 -0.0500004 0.00109987
0.6875 -0.0500004 0.00109987
0.7 -0.0500004 0.00109987
0.7125 -0.0500004 0.00109987
0.725 -0.0500004 0.00109987
0.7375 -0.0500004 0.00109987
0.75 -0.0500004 0.00109987
0.7625 -0.0500004 0.00109987
0.775 -0.0500004 0.00109987
0.7875 -0.0500004 0.00109987
0.8 -0.0500004 0.00109987
0.8125 -0.0500004 0.00109987
0.825 -0.0500004 0.00109987
0.8375 -0.0500004 0.00109987
0.85 -0.0500004 0.00109987
0.8625 -0.0500004 0.00109987
0.875 -0.0500004 0.00109987
0.8875 -0.0500004 0.00109987
0.9 -0.0500004 0.00109987
0.9125 -0.0500005 0.00109987
0.925 -0.0500005 0.00109988
0.9375 -0.0500005 0.00109988
0.95 -0.0500005 0.00109988
0.9625 -0.0500005 0.00109988
0.975 -0.0500005 0.00109988
0.9875 -0.0500005 0.00109988
1 -0.0500005 0.00109988
1.0125 -0.0500005 0.00109988
1.025 -0.0500005 0.00109988
1.0375 -0.0500005 0.00109988
1.05 -0.0500005 0.00109988
1.0625 -0.0500005 0.00109988
1.075 -0.0500005 0.00109988
1.0875 -0.0500005 0.00109988
1.1 -0.0500005 0.00109988
1.1125 -0.0500005 0.00109988
1.125 -0.0500005 0.00109988
1.1375 -0.0500005 0.00109988
1.15 -0.0500005 0.00109988
1.1625 -0.0500005 0.00109988
1.175 -0.0500005 0.00109988
1.1875 -0.0500005 0.00109988
1.2 -0.0500005 0.00109988
1.2125 -0.0500005 0.00109988
1.225 -0.0500005 0.00109988
1.2375 -0.0500005 0.00109989
1.25 -0.0500005 0.00109989
1.2625 -0.0500005 0.00109989
1.275 -0.0500005 0.00109989
1.2875 -0.0500005 0.00109989
1.3 -0.0500005 0.00109989
1.3125 -0.0500005 0.00109989
1.325 -0.0500005 0.00109989
1.3375 -0.0500005 0.00109989
1.35 -0.0500005 0.00109989
1.3625 -0.0500005 0.00109989
1.375 -0.0500005 0.00109989
1.3875 -0.0500005 0.00109989
1.4 -0.0500005 0.00109989
1.4125 -0.0500005 0.00109989
1.425 -0.0500005 0.00109989
1.4375 -0.0500005 0.0010999
1.45 -0.0500005 0.0010999
1.4625 -0.0500005 0.0010999
1.475 -0.0500005 0.0010999
1.4875 -0.0500005 0.0010999
1.5 -0.0500006 0.0010999
1.5125 -0.0500006 0.0010999
1.525 -0.0500006 0.0010999
1.5375 -0.0500006 0.0010999
1.55 -0.0500006 0.0010999
1.5625 -0.0500006 0.0010999
1.575 -0.0500006 0.0010999
1.5875 -0.0500006 0.0010999
1.6 -0.0500006 0.0010999
1.6125 -0.0500006 0.00109991
1.625 -0.0500006 0.00109991
1.6375 -0.0500006 0.00109991
1.65 -0.0500006 0.00109991
1.6625 -0.0500006 0.00109991
1.675 -0.0500006 0.00109991
1.6875 -0.0500006 0.00109991
1.7 -0.0500006 0.00109991
1.7125 -0.0500006 0.00109991
1.725 -0.0500006 0.00109991
1.7375 -0.0500006 0.00109991
1.75 -0.0500006 0.00109991
1.7625 -0.0500006 0.00109991
1.775 -0.0500006 0.00109992
1.7875 -0.0500006 0.00109992
1.8 -0.0500006 0.00109992
1.8125 -0.0500006 0.00109992
1.825 -0.0500006 0.00109992
1.8375 -0.0500006 0.00109992
1.85 -0.0500006 0.00109992
1.8625 -0.0500006 0.00109992
1.875 -0.0500006 0.00109992
1.8875 -0.0500006 0.00109992
1.9 -0.0500006 0.00109992
1.9125 -0.0500006 0.00109992
1.925 -0.0500006 0.00109993
1.9375 -0.0500006 0.00109993
1.95 -0.0500006 0.00109993
1.9625 -0.0500006 0.00109993
1.975 -0.0500006 0.00109993
1.9875 -0.0500006 0.00109993
2 -0.0500006 0.00109993
2.0125 -0.0500006 0.00109993
2.025 -0.0500006 0.00109993
2.0375 -0.0500006 0.00109993
2.05 -0.0500006 0.00109993
2.0625 -0.0500006 0.00109993
2.075 -0.0500006 0.00109994
2.0875 -0.0500006 0.00109994
2.1 -0.0500006 0.00109994
2.1125 -0.0500006 0.00109994
2.125 -0.0500006 0.00109994
2.1375 -0.0500006 0.00109994
2.15 -0.0500006 0.00109994
2.1625 -0.0500006 0.00109994
2.175 -0.0500007 0.00109994
2.1875 -0.0500007 0.00109994
2.2 -0.0500007 0.00109994
2.2125 -0.0500007 0.00109994
2.225 -0.0500007 0.00109995
2.2375 -0.0500007 0.00109995
2.25 -0.0500007 0.00109995
2.2625 -0.0500007 0.00109995
2.275 -0.0500007 0.00109995
2.2875 -0.0500007 0.00109995
2.3 -0.0500007 0.00109995
2.3125 -0.0500007 0.00109995
2.325 -0.0500007 0.00109995
2.3375 -0.0500007 0.00109995
2.35 -0.0500007 0.00109995
2.3625 -0.0500007 0.00109995
2.375 -0.0500007 0.00109995
2.3875 -0.0500007 0.00109995
2.4 -0.0500007 0.00109996
2.4125 -0.0500007 0.00109996
2.425 -0.0500007 0.00109996
2.4375 -0.0500007 0.00109996
2.45 -0.0500007 0.00109996
2.4625 -0.0500007 0.00109996
2.475 -0.0500007 0.00109996
2.4875 -0.0500007 0.00109996
2.5 -0.0500007 0.00109996
2.5125 -0.0500007 0.00109996
2.525 -0.0500007 0.00109996
2.5375 -0.0500007 0.00109996
2.55 -0.0500007 0.00109996
2.5625 -0.0500007 0.00109996
2.575 -0.0500007 0.00109997
2.5875 -0.0500007 0.00109997
2.6 -0.0500007 0.00109997
2.6125 -0.0500007 0.00109997
2.625 -0.0500007 0.00109997
2.6375 -0.0500007 0.00109997
2.65 -0.0500007 0.00109997
2.6625 -0.0500007 0.00109997
2.675 -0.0500007 0.00109997
2.6875 -0.0500007 0.00109997
2.7 -0.0500007 0.00109997
2.7125 -0.0500007 0.00109997
2.725 -0.0500007 0.00109997
2.7375 -0.0500007 0.00109997
2.75 -0.0500007 0.00109997
2.7625 -0.0500007 0.00109997
2.775 -0.0500007 0.00109998
2.7875 -0.0500007 0.00109998
2.8 -0.0500007 0.00109998
2.8125 -0.0500007 0.00109998
2.825 -0.0500007 0.00109998
2.8375 -0.0500007 0.00109998
2.85 -0.0500007 0.00109998
2.8625 -0.0500008 0.00109998
2.875 -0.0500008 0.00109998
2.8875 -0.0500008 0.00109998
2.9 -0.0500008 0.00109998
2.9125 -0.0500008 0.00109998
2.925 -0.0500008 0.00109998
2.9375 -0.0500008 0.00109998
2.95 -0.0500008 0.00109998
2.9625 -0.0500008 0.00109998
2.975 -0.0500008 0.00109998
2.9875 -0.0500008 0.00109998
3 -0.0500008 0.00109998
3.0125 -0.0500008 0.00109998
3.025 -0.0500008 0.00109999
3.0375 -0.0500008 0.00109999
3.05 -0.0500008 0.00109999
3.0625 -0.0500008 0.00109999
3.075 -0.0500008 0.00109999
3.0875 -0.0500008 0.00109999
3.1 -0.0500008 0.00109999
3.1125 -0.0500008 0.00109999
3.125 -0.0500008 0.00109999
3.1375 -0.0500008 0.00109999
3.15 -0.0500008 0.00109999
3.1625 -0.0500008 0.00109999
3.175 -0.0500008 0.00109999
3.1875 -0.0500008 0.00109999
3.2 -0.0500008 0.00109999
3.2125 -0.0500008 0.00109999
3.225 -0.0500008 0.00109999
3.2375 -0.0500008 0.00109999
3.25 -0.0500008 0.00109999
3.2625 -0.0500008 0.00109999
3.275 -0.0500008 0.00109999
3.2875 -0.0500008 0.00109999
3.3 -0.0500008 0.00109999
3.3125 -0.0500008 0.00109999
3.325 -0.0500008 0.00109999
3.3375 -0.0500008 0.00109999
3.35 -0.0500008 0.00109999
3.3625 -0.0500008 0.00109999
[...]
POINT_DATA 15780
 FIELD attributes 2
p 1 15780 float
-0.0311023 -0.0311183 -0.0311343 -0.0311503 -0.0311663 -0.0311823 -0.0321107 -0.0330311 -0.0339515 -0.0348719 -0.0358883 -0.0369491 -0.038013 -0.039077 -0.040141 -0.0411589 -0.0421444 -0.0431118 -0.0440792 -0.0450466 -0.0459631 -0.0468658 -0.0477731 -0.0486804 -0.0495876 -0.0504888 -0.0513925 -0.0522969 -0.0532012 -0.0541056 -0.0550091 -0.0559169 -0.0568245 -0.0577322 -0.0586398 -0.0595467 -0.0604422 -0.0613346 -0.0622271 -0.0631195 -0.0640085 -0.0648802 -0.0657501 -0.0666201 -0.0674901 -0.0683578 -0.0692122 -0.070066 -0.0709199 -0.0717737 -0.0726268 -0.073468 -0.0743075 -0.075147 -0.0759865 -0.0768248 -0.0776433 -0.0784581 -0.0792728 -0.0800875 -0.0808986 -0.0816804 -0.0824572 -0.0832339 -0.0840106 -0.084782 -0.0855206 -0.0862541 -0.0869876 -0.0877212 -0.0884498 -0.0891482 -0.089842 -0.0905358 -0.0912296 -0.0919197 -0.0925825 -0.0932414 -0.0939003 -0.0945592 -0.0952152 -0.0958429 -0.0964651 -0.0970874 -0.0977096 -0.0983267 -0.0989116 -0.0994903 -0.100069 -0.100648 -0.101219 -0.101755 -0.102284 -0.102813 -0.103342 -0.103865 -0.104349 -0.104826 -0.105303 -0.10578 -0.106251 -0.106683 -0.107108 -0.107533 -0.107958 -0.108376 -0.108755 -0.109128 -0.109501 -0.109873 -0.110239 -0.110564 -0.110881 -0.111198 -0.111515 -0.111825 -0.112092 -0.112351 -0.112611 -0.11287 -0.113121 -0.113331 -0.113534 -0.113736 -0.113938 -0.114132 -0.114287 -0.114434 -0.114581 -0.114727 -0.114867 -0.114965 -0.115055 -0.115145 -0.115235 -0.115317 -0.115355 -0.115385 -0.115415 -0.115445 -0.115466 -0.115444 -0.115415 -0.115386 -0.115357 -0.115319 -0.115243 -0.11516 -0.115076 -0.114993 -0.114901 -0.114773 -0.11464 -0.114506 -0.114372 -0.114231 -0.114056 -0.113874 -0.113692 -0.11351 -0.113321 -0.1131 -0.112872 -0.112644 -0.112416 -0.112182 -0.111916 -0.111644 -0.111372 -0.1111 -0.110822 -0.110512 -0.110195 -0.109878 -0.109561 -0.109238 -0.108883 -0.108521 -0.108159 -0.107797 -0.107428 -0.10703 -0.106626 -0.106222 -0.105819 -0.105409 -0.104974 -0.104534 -0.104094 -0.103654 -0.103208 -0.102743 -0.102273 -0.101803 -0.101333 -0.100859 -0.100368 -0.0998725 -0.099377 -0.0988816 -0.0983829 -0.097869 -0.09735 -0.0968309 -0.0963119 -0.0957886 -0.0952506 -0.0947086 -0.0941666 -0.0936245 -0.0930782 -0.0925162 -0.0919516 -0.091387 -0.0908224 -0.0902539 -0.0896713 -0.0890859 -0.0885005 -0.0879151 -0.0873249 -0.0867242 -0.0861229 -0.0855216 -0.0849203 -0.0843167 -0.083707 -0.0830966 -0.0824861 -0.0818757 -0.0812631 -0.0806489 -0.0800352 -0.0794216 -0.078808 -0.078194 -0.0775805 -0.0769672 -0.0763538 -0.0757404 -0.075127 -0.0745162 -0.0739047 -0.0732932 -0.0726816 -0.0720703 -0.0714619 -0.0708531 -0.0702443 -0.0696355 -0.0690281 -0.0684233 -0.0678168 -0.0672104 -0.066604 -0.0659969 -0.0653928 -0.0647876 -0.0641824 -0.0635772 -0.0629707 -0.0623676 -0.0617643 -0.0611611 -0.0605578 -0.0599537 -0.0593557 -0.058758 -0.0581603 -0.0575626 -0.056965 -0.0563767 -0.0557893 -0.0552019 -0.0546144 -0.0540282 -0.053452 -0.0528772 -0.0523024 -0.0517276 -0.0511546 -0.0505904 -0.0500282 -0.0494659 -0.0489037 -0.0483429 -0.0477905 -0.0472402 -0.04669 -0.0461398 -0.0455896 -0.0450459 -0.044507 -0.043968 -0.0434291 -0.0428917 -0.0423615 -0.041834 -0.0413066 -0.0407791 -0.0402519 -0.0397355 -0.0392223 -0.0387092 -0.0381961 -0.0376858 -0.0371884 -0.0366941 -0.0361998 -0.0357055 -0.035215 -0.0347411 -0.0342695 -0.0337978 -0.0333262 -0.0328582 -0.0324076 -0.0319596 -0.0315116 -0.0310636 -0.0306203 -0.0301947 -0.0297689 -0.0293431 -0.0289173 -0.0284943 -0.0280877 -0.0276822 -0.0272767 -0.0268712 -0.0264702 -0.0260832 -0.0256949 -0.0253067 -0.0249184 -0.0245314 -0.0241561 -0.0237812 -0.0234062 -0.0230313 -0.0226571 -0.0222916 -0.0219277 -0.0215638 -0.0211999 -0.0208365 -0.0204825 -0.0201303 -0.0197781 -0.0194259 -0.0190736 -0.0187305 -0.0183915 -0.0180525 -0.0177136 -0.0173765 -0.0170484 -0.0167233 -0.0163982 -0.0160731 -0.0157486 -0.0154314 -0.0151201 -0.0148088 -0.0144975 -0.0141889 -0.0138872 -0.0135897 -0.0132922 -0.0129948 -0.0126971 -0.0124058 -0.0121215 -0.0118373 -0.011553 -0.0112716 -0.0109964 -0.010725 -0.0104536 -0.0101822 -0.00991276 -0.00965344 -0.00939683 -0.00914022 -0.00888362 -0.00863093 -0.00838916 -0.00815043 -0.00791171 -0.00767298 -0.00744047 -0.00722302 -0.00700549 -0.00678797 -0.00657045 -0.00635713 -0.00616008 -0.00596509 -0.00577009 -0.0055751 -0.0053873 -0.00521625 -0.00504214 -0.00486804 -0.00469394 -0.00452251 -0.00436681 -0.00421148 -0.00405615 -0.00390082 -0.0037515 -0.00361422 -0.00347343 -0.00333265 -0.00319186 -0.00305179 -0.00291943 -0.00278605 -0.00265267 -0.0025193 -0.0023862 -0.00225352 -0.00212145 -0.00198938 -0.00185731 -0.00172397 -0.00159054 -0.0014573 -0.00132407 -0.00119083 -0.00105384 -0.00091481 -0.000780615 -0.000646419 -0.000512224 -0.000377523 -0.00024202 -0.000108702 2.46169e-05 0.000157935 0.000295355 0.000433643 0.000563553 0.000693462 0.000823372 0.000952133 0.00108075 0.00120517 0.00132958 0.001454 0.00158169 0.00170759 0.00182541 0.00194323 0.00206105 0.00217617 0.00229053 0.00240111 0.00251169 0.00262227 0.00273058 0.00283324 0.00293446 0.00303568 0.0031369 0.00323395 0.00332523 0.00341388 0.00350254 0.0035912 0.00367178 0.00374123 0.00381321 0.00388519 0.00395717 0.00402462 0.00407878 0.00413151 0.00418424 0.00423697 0.00427994 0.00430777 0.00434152 0.00437527 0.00440903 0.00443983 0.00445515 0.00447077 0.00448639 0.004502 0.00450891 0.00450477 0.00450749 0.00451022 0.00451294 0.00451512 0.00451273 0.00451262 0.0045125 0.00451239 0.00451233 0.00451937 0.00452548 0.0045316 0.00453771 0.00454668 0.00456331 0.0045808 0.00459829 0.00461578 0.00464176 0.00467933 0.00471033 0.00474134 0.00477234 0.00480667 0.00485078 0.00489386 0.00493693 0.00498001 0.00503269 0.00509343 0.00514417 0.00519491 0.00524565 0.00529716 0.00535476 0.00540867 0.00546257 0.00551648 0.00557656 0.0056387 0.00569252 0.00574634 0.00580016 0.005852 0.00590671 0.005958 0.0060093 0.00606059 0.00610932 0.00615394 0.00619899 0.00624405 0.0062891 0.00632973 0.00636702 0.00640236 0.0064377 0.00647304 0.00649799 0.0065139 0.00653549 0.00655708 0.00657867 0.00659533 0.0066008 0.0066054 0.00661 0.0066146 0.00660645 0.0065852 0.00657196 0.00655871 0.00654546 0.00652881 0.0064964 0.00646378 0.00643116 0.00639854 0.00635485 0.0062986 0.00624939 0.00620018 0.00615097 0.00609964 0.00604295 0.00598811 0.00593327 0.00587843 0.00582226 0.00577482 0.00572634 0.00567786 0.00562938 0.0055837 0.00554758 0.00551271 0.00547784 0.00544298 0.00541794 0.00540795 0.00539122 0.00537449 0.00535777 0.00534605 0.00534705 0.00534843 0.00534981 0.00535119 0.00536604 0.00539172 0.00540696 0.00542219 0.00543743 0.0054559 0.00548292 0.0055078 0.00553268 0.00555756 0.00559324 0.00563337 0.00566475 0.00569613 0.0057275 0.00575924 0.005797 0.00583273 0.00586846 0.00590419 0.00594148 0.00597818 0.00601463 0.00605107 0.00608752 0.00612143 0.00615606 0.00618957 0.00622307 0.00625658 0.0062824 0.00630243 0.00632796 0.0063535 0.00637904 0.00640015 0.00641297 0.00642474 0.0064365 0.00644826 0.00644622 0.00643199 0.00642711 0.00642223 0.00641735 0.00640826 0.00638364 0.00635844 0.00633324 0.00630805 0.00626808 0.00621247 0.00616543 0.0061184 0.00607136 0.00601971 0.00595871 0.00589871 0.00583871 0.00577872 0.00571205 0.00565088 0.00559113 0.00553138 0.00547162 0.00541307 0.00536083 0.00530981 0.00525879 0.00520777 0.00516356 0.00513291 0.00509671 0.00506052 0.00502433 0.00499262 0.00497261 0.00495331 0.00493401 0.00491471 0.00490848 0.00491315 0.00490752 0.00490188 0.00489624 0.00489421 0.00490066 0.00490549 0.00491033 0.00491517 0.00493291 0.00495754 0.00497196 0.00498639 0.00500081 0.00501731 0.00504231 0.00506595 0.00508959 0.00511324 0.00514361 0.00517675 0.00520667 0.0052366 0.00526652 0.00529602 0.00532854 0.0053599 0.00539127 0.00542263 0.00545126 0.00547529 0.00550205 0.00552882 0.00555558 0.00557974 0.00558267 0.00557976 0.00557685 0.00557393 0.00555679 0.00555592 0.00557529 0.00559466 0.00561403 0.00565315 0.00573519 0.00580061 0.00586949 0.00594438 0.00599305 0.00596236 0.00593078 0.00589921 0.00588063 0.00586049 0.00584626 0.0058334 0.00582053 0.00578114 0.00577184 0.00577072 0.00577097 0.00577124 0.00577151 0.00576577 0.00581877 0.00587299 0.0059272 0.00598141 0.00602525 0.00611157 0.00618366 0.00625575 0.00632783 0.00631891 0.00630522 0.00628645 0.00626768 0.00624891 0.00623756 0.00603698 0.00581588 0.00559478 0.00537368 0.00504677 0.00456488 0.00406896 0.00357304 0.00307711 0.0026103 0.0023331 0.0020484 0.0017637 0.00147901 0.00122467 0.00112919 0.00102744 0.0009257 0.000823956 0.000741525 0.000641796 0.000536419 0.000431042 0.000325663 0.000253253
-0.0319527 -0.0319718 -0.0319908 -0.0320099 -0.032029 -0.032048 -0.0327464 -0.0336207 -0.0344 -0.0351591 -0.0362128 -0.0372436 -0.0382305 -0.0392297 -0.0402865 -0.0412703 -0.0422309 -0.0431995 -0.0441421 -0.0450792 -0.0459901 -0.0468943 -0.0478064 -0.0487181 -0.0496284 -0.0505383 -0.0514356 -0.0523426 -0.053256 -0.0541708 -0.0550937 -0.0560004 -0.0569121 -0.0578234 -0.0587325 -0.0596454 -0.060544 -0.061437 -0.0623301 -0.0632232 -0.0641105 -0.0649837 -0.0658556 -0.0667273 -0.0675975 -0.0684654 -0.0693162 -0.0701702 -0.071027 -0.0718845 -0.0727448 -0.073582 -0.0744251 -0.0752676 -0.0761074 -0.0769534 -0.0777722 -0.0785872 -0.0794041 -0.0802215 -0.0810356 -0.0818191 -0.0825986 -0.0833776 -0.0841545 -0.0849269 -0.0856649 -0.0863987 -0.0871354 -0.0878726 -0.0886058 -0.0892979 -0.0899957 -0.0906929 -0.091387 -0.0920872 -0.0927415 -0.0934004 -0.0940614 -0.0947229 -0.09539 -0.0960085 -0.0966322 -0.0972556 -0.0978776 -0.0985053 -0.0990814 -0.0996598 -0.10024 -0.10082 -0.101401 -0.101926 -0.102456 -0.102987 -0.103516 -0.10405 -0.104523 -0.105 -0.105478 -0.105956 -0.106439 -0.106858 -0.107283 -0.107709 -0.108133 -0.108565 -0.108932 -0.109305 -0.109677 -0.11005 -0.110427 -0.110742 -0.111058 -0.111374 -0.111691 -0.112009 -0.112268 -0.112527 -0.112785 -0.113042 -0.1133 -0.113501 -0.113702 -0.113904 -0.114106 -0.114308 -0.114455 -0.114601 -0.114748 -0.114895 -0.115043 -0.115131 -0.115221 -0.115312 -0.115401 -0.115493 -0.115522 -0.115552 -0.115582 -0.115613 -0.115644 -0.115611 -0.115581 -0.115552 -0.115523 -0.115496 -0.115406 -0.115323 -0.115238 -0.115153 -0.115073 -0.114931 -0.114794 -0.114658 -0.114523 -0.114392 -0.114203 -0.11402 -0.113835 -0.11365 -0.113471 -0.113236 -0.113004 -0.112774 -0.112545 -0.112321 -0.112043 -0.11177 -0.111494 -0.111218 -0.110948 -0.110627 -0.110307 -0.109987 -0.109669 -0.109352 -0.108989 -0.108627 -0.108263 -0.107898 -0.107534 -0.107129 -0.106723 -0.106317 -0.105913 -0.105507 -0.105064 -0.104623 -0.104181 -0.103739 -0.103299 -0.102822 -0.102349 -0.101877 -0.101406 -0.100939 -0.100438 -0.0999417 -0.0994431 -0.0989441 -0.098452 -0.0979285 -0.0974061 -0.0968841 -0.0963647 -0.0958471 -0.095302 -0.0947597 -0.094215 -0.0936697 -0.0931273 -0.0925598 -0.0919919 -0.0914246 -0.0908598 -0.090293 -0.0897045 -0.0891188 -0.0885308 -0.0879423 -0.0873545 -0.0867485 -0.0861446 -0.085541 -0.0849395 -0.0843384 -0.0837211 -0.0831104 -0.0824981 -0.0818854 -0.0812776 -0.0806564 -0.0800405 -0.079425 -0.0788111 -0.0782021 -0.0775817 -0.076968 -0.0763526 -0.0757369 -0.0751283 -0.0745108 -0.0738969 -0.0732833 -0.0726714 -0.0720638 -0.0714517 -0.0708426 -0.0702317 -0.0696204 -0.0690144 -0.0684068 -0.0677979 -0.0671894 -0.0665827 -0.0659752 -0.0653712 -0.0647658 -0.0641587 -0.0635513 -0.0629422 -0.06234 -0.0617347 -0.0611297 -0.0605262 -0.059919 -0.0593205 -0.0587225 -0.0581232 -0.0575236 -0.0569244 -0.0563343 -0.0557452 -0.0551564 -0.0545688 -0.0539827 -0.0534056 -0.0528307 -0.0522549 -0.0516789 -0.0511058 -0.0505413 -0.0499779 -0.0494148 -0.0488525 -0.0482909 -0.0477373 -0.047187 -0.0466359 -0.0460846 -0.0455343 -0.0449921 -0.0444523 -0.0439126 -0.0433736 -0.042834 -0.0423034 -0.041776 -0.0412483 -0.0407206 -0.0401938 -0.0396772 -0.0391647 -0.0386522 -0.0381393 -0.0376297 -0.0371314 -0.0366374 -0.0361441 -0.0356509 -0.0351623 -0.0346861 -0.0342153 -0.0337443 -0.0332728 -0.0328081 -0.0323568 -0.0319088 -0.0314609 -0.031013 -0.0305708 -0.0301438 -0.029718 -0.0292922 -0.0288664 -0.0284445 -0.0280409 -0.0276354 -0.0272298 -0.0268241 -0.0264202 -0.0260359 -0.0256471 -0.0252584 -0.0248702 -0.0244794 -0.0241098 -0.0237348 -0.0233592 -0.0229834 -0.0226023 -0.0222429 -0.0218782 -0.0215136 -0.0211497 -0.0207796 -0.020429 -0.0200767 -0.0197239 -0.019371 -0.0190142 -0.0186747 -0.018335 -0.0179954 -0.0176564 -0.0173153 -0.0169886 -0.0166635 -0.0163381 -0.0160127 -0.0156865 -0.0153727 -0.0150614 -0.0147501 -0.0144389 -0.0141268 -0.0138249 -0.0135274 -0.0132301 -0.0129328 -0.0126352 -0.0123471 -0.0120635 -0.0117798 -0.0114956 -0.0112121 -0.0109376 -0.0106664 -0.0103964 -0.0101265 -0.00985875 -0.00959913 -0.00934503 -0.00909054 -0.00883432 -0.00858413 -0.00834326 -0.00810498 -0.0078688 -0.00763309 -0.00740316 -0.00718231 -0.00696732 -0.00675193 -0.00653473 -0.00632719 -0.00613037 -0.00593553 -0.00574182 -0.00554837 -0.00536248 -0.00518861 -0.0050157 -0.0048426 -0.00466865 -0.00450099 -0.00434852 -0.0041933 -0.00403838 -0.00388353 -0.00373175 -0.00359595 -0.00345422 -0.00331266 -0.00317183 -0.00302896 -0.00290285 -0.00276931 -0.00263435 -0.00249906 -0.00235683 -0.00223283 -0.00209867 -0.00196485 -0.00183256 -0.00168915 -0.00156201 -0.00142857 -0.00129382 -0.00115878 -0.00101252 -0.000883848 -0.000748116 -0.00061263 -0.000478243 -0.000332711 -0.000200922 -6.74417e-05 6.65755e-05 0.000200713 0.00034332 0.000474129 0.000604016 0.000733928 0.00086396 0.000999577 0.00112916 0.00125361 0.00137754 0.00150136 0.00162758 0.00175095 0.00186735 0.00198398 0.00210162 0.00221762 0.00233258 0.0024428 0.00255139 0.00265961 0.00276342 0.00286922 0.00296703 0.00306537 0.00316607 0.00325746 0.00334888 0.00343692 0.00352202 0.00360647 0.00368123 0.00375858 0.00382671 0.00389546 0.00396692 0.00402374 0.00407988 0.00413228 0.00418301 0.00423336 0.00427113 0.00430709 0.00433903 0.00437126 0.00440475 0.0044261 0.00444121 0.00445665 0.00447124 0.00448564 0.00449174 0.00448972 0.00449369 0.00449744 0.00450027 0.00450128 0.00449415 0.00449451 0.00449744 0.00450094 0.00451053 0.00450913 0.00451975 0.00452965 0.00453636 0.00455756 0.00456853 0.00458651 0.00460756 0.0046293 0.00466675 0.00468918 0.00472353 0.00475733 0.00478871 0.00484047 0.00487898 0.00492229 0.00496685 0.0050117 0.00507275 0.00512125 0.00517213 0.005223 0.00527381 0.00533681 0.00539364 0.00544751 0.00550068 0.0055537 0.00561369 0.00567123 0.00572329 0.00577564 0.00582929 0.00588374 0.0059379 0.00598881 0.00603776 0.00608627 0.0061311 0.00617973 0.00622082 0.00626254 0.00630705 0.00634077 0.00637722 0.00641187 0.00644308 0.00647351 0.00649287 0.0065189 0.00653587 0.00655359 0.00657457 0.00657768 0.00658581 0.00659005 0.00659184 0.00659308 0.00657834 0.00656933 0.00655354 0.00653816 0.00652462 0.00649338 0.00646624 0.00643348 0.00639989 0.0063661 0.00631628 0.0062693 0.0062212 0.00617292 0.00612385 0.00606381 0.00600656 0.00595212 0.00589993 0.00584827 0.00579732 0.00574436 0.00570034 0.00565557 0.00560757 0.00557083 0.00553072 0.00549638 0.00546579 0.00543605 0.00542242 0.00539543 0.00538367 0.0053711 0.005355 0.00536355 0.00535758 0.0053595 0.00536386 0.0053688 0.00539493 0.00540373 0.00542085 0.00543769 0.00545327 0.00549006 0.00551328 0.00553828 0.00556361 0.00558902 0.00562895 0.00565915 0.00568988 0.00572072 0.00575198 0.0057931 0.00582612 0.00586154 0.00589563 0.00592941 0.00596695 0.00600316 0.00603631 0.00607 0.00610602 0.00613908 0.00617006 0.00620298 0.00623268 0.00626163 0.00628435 0.00631338 0.00633365 0.00635477 0.00637959 0.00638848 0.00640351 0.00641464 0.00642255 0.0064297 0.00641997 0.00641998 0.00641139 0.00640341 0.00639804 0.00637154 0.0063539 0.00632839 0.00630072 0.00627254 0.00622306 0.0061838 0.00613579 0.00608796 0.00604083 0.00597104 0.0059138 0.00585403 0.00579562 0.00573752 0.00567112 0.00561065 0.00555463 0.00549796 0.00543859 0.0053812 0.00532832 0.0052778 0.00523071 0.00518441 0.00514876 0.00510464 0.00507352 0.00504156 0.00500605 0.00499031 0.00496548 0.00494682 0.00493099 0.00491581 0.00492021 0.00490902 0.00490642 0.00490334 0.00489821 0.00491362 0.00491704 0.0049222 0.00492904 0.00493628 0.00496018 0.00497128 0.00498754 0.00500349 0.00501808 0.00504944 0.00506794 0.00509167 0.00511608 0.00514066 0.00517622 0.0052027 0.00523275 0.00526278 0.00529273 0.00533096 0.00535684 0.00538834 0.00542034 0.00545246 0.00548633 0.00551257 0.00554301 0.00557286 0.00560024 0.00562927 0.00564146 0.00564483 0.00566596 0.00569127 0.00569708 0.00567093 0.00569498 0.00571839 0.00573911 0.00581109 0.00592459 0.0059839 0.00603276 0.0060746 0.00599221 0.00597407 0.00593827 0.00590248 0.0058798 0.00585344 0.00583091 0.00581269 0.00579448 0.00575499 0.00573123 0.00573099 0.00573076 0.00573052 0.00572972 0.00572789 0.00574193 0.00575732 0.00577277 0.00578822 0.00572839 0.00576728 0.00582079 0.00587456 0.00592834 0.00598801 0.00618996 0.00627737 0.00635699 0.00642908 0.00631732 0.0063576 0.00633884 0.00632305 0.00631439 0.00625356 0.00620614 0.00598504 0.00576394 0.00553067 0.00503993 0.00469978 0.00420386 0.00370794 0.00320936 0.00258657 0.00239689 0.0021122 0.0018275 0.00154281 0.00119473 0.00117673 0.00107498 0.000973239 0.000871495 0.000717966 0.000689314 0.000583939 0.000478563 0.000373188 0.000205082