# vtk DataFile Version 2.0
track0
ASCII
DATASET POLYDATA
POINTS 15780 float
-1.001 -0.05 0.0011
-1.0008 -0.05 0.0011
-1.0006 -0.05 0.0011
-1.0004 -0.05 0.0011
-1.0002 -0.05 0.0011
-1 -0.05 0.0011
-0.9875 -0.05 0.0011
-0.975 -0.05 0.0011
-0.9625 -0.05 0.0011
-0.95 -0.05 0.0011
-0.9375 -0.05 0.00109999
-0.925 -0.05 0.00109999
-0.9125 -0.05 0.00109999
-0.9 -0.05 0.00109999
-0.8875 -0.05 0.00109999
-0.875 -0.05 0.00109999
-0.8625 -0.05 0.00109999
-0.85 -0.05 0.00109999
-0.8375 -0.05 0.00109998
-0.825 -0.0500001 0.00109998
-0.8125 -0.0500001 0.00109998
-0.8 -0.0500001 0.00109998
-0.7875 -0.0500001 0.00109998
-0.775 -0.0500001 0.00109998
-0.7625 -0.0500001 0.00109998
-0.75 -0.0500001 0.00109998
-0.7375 -0.0500001 0.00109997
-0.725 -0.0500001 0.00109997
-0.7125 -0.0500001 0.00109997
-0.7 -0.0500001 0.00109997
-0.6875 -0.0500001 0.00109997
-0.675 -0.0500001 0.00109997
-0.6625 -0.0500001 0.00109997
-0.65 -0.0500001 0.00109996
-0.6375 -0.0500001 0.00109996
-0.625 -0.0500001 0.00109996
-0.6125 -0.0500001 0.00109996
-0.6 -0.0500001 0.00109996
-0.5875 -0.0500001 0.00109996
-0.575 -0.0500001 0.00109996
-0.5625 -0.0500001 0.00109996
-0.55 -0.0500001 0.00109995
-0.5375 -0.0500001 0.00109995
-0.525 -0.0500001 0.00109995
-0.5125 -0.0500001 0.00109995
-0.5 -0.0500001 0.00109995
-0.4875 -0.0500001 0.00109995
-0.475 -0.0500001 0.00109995
-0.4625 -0.0500001 0.00109994
-0.45 -0.0500002 0.00109994
-0.4375 -0.0500002 0.00109994
-0.425 -0.0500002 0.00109994
-0.4125 -0.0500002 0.00109994
-0.4 -0.0500002 0.00109994
-0.3875 -0.0500002 0.00109994
-0.375 -0.0500002 0.00109994
-0.3625 -0.0500002 0.00109993
-0.35 -0.0500002 0.00109993
-0.3375 -0.0500002 0.00109993
-0.325 -0.0500002 0.00109993
-0.3125 -0.0500002 0.00109993
-0.3 -0.0500002 0.00109993
-0.2875 -0.0500002 0.00109993
-0.275 -0.0500002 0.00109993
-0.2625 -0.0500002 0.00109992
-0.25 -0.0500002 0.00109992
-0.2375 -0.0500002 0.00109992
-0.225 -0.0500002 0.00109992
-0.2125 -0.0500002 0.00109992
-0.2 -0.0500002 0.00109992
-0.1875 -0.0500002 0.00109992
-0.175 -0.0500002 0.00109992
-0.1625 -0.0500002 0.00109991
-0.15 -0.0500002 0.00109991
-0.1375 -0.0500002 0.00109991
-0.125 -0.0500002 0.00109991
-0.1125 -0.0500002 0.00109991
-0.1 -0.0500002 0.00109991
-0.0875 -0.0500002 0.00109991
-0.075 -0.0500002 0.00109991
-0.0625 -0.0500002 0.00109991
-0.05 -0.0500003 0.0010999
-0.0375 -0.0500003 0.0010999
-0.025 -0.0500003 0.0010999
-0.0125 -0.0500003 0.0010999
2.10607e-13 -0.0500003 0.0010999
0.0125 -0.0500003 0.0010999
0.025 -0.0500003 0.0010999
0.0375 -0.0500003 0.0010999
0.05 -0.0500003 0.0010999
0.0625 -0.0500003 0.0010999
0.075 -0.0500003 0.0010999
0.0875 -0.0500003 0.0010999
0.1 -0.0500003 0.00109989
0.1125 -0.0500003 0.00109989
0.125 -0.0500003 0.00109989
0.1375 -0.0500003 0.00109989
0.15 -0.0500003 0.00109989
0.1625 -0.0500003 0.00109989
0.175 -0.0500003 0.00109989
0.1875 -0.0500003 0.00109989
0.2 -0.0500003 0.00109989
0.2125 -0.0500003 0.00109989
0.225 -0.0500003 0.00109989
0.2375 -0.0500003 0.00109989
0.25 -0.0500003 0.00109989
0.2625 -0.0500003 0.00109988
0.275 -0.0500003 0.00109988
0.2875 -0.0500003 0.00109988
0.3 -0.0500003 0.00109988
0.3125 -0.0500003 0.00109988
0.325 -0.0500003 0.00109988
0.3375 -0.0500003 0.00109988
0.35 -0.0500003 0.00109988
0.3625 -0.0500003 0.00109988
0.375 -0.0500003 0.00109988
0.3875 -0.0500003 0.00109988
0.4 -0.0500004 0.00109988
0.4125 -0.0500004 0.00109988
0.425 -0.0500004 0.00109988
0.4375 -0.0500004 0.00109988
0.45 -0.0500004 0.00109988
0.4625 -0.0500004 0.00109988
0.475 -0.0500004 0.00109988
0.4875 -0.0500004 0.00109988
0.5 -0.0500004 0.00109988
0.5125 -0.0500004 0.00109988
0.525 -0.0500004 0.00109988
0.5375 -0.0500004 0.00109988
0.55 -0.0500004 0.00109988
0.5625 -0.0500004 0.00109987
0.575 -0.0500004 0.00109987
0.5875 -0.0500004 0.00109987
0.6 -0.0500004 0.00109987
0.6125 -0.0500004 0.00109987
0.625 -0.0500004 0.00109987
0.6375 -0.0500004 0.00109987
0.65 -0.0500004 0.00109987
0.6625 -0.0500004 0.00109987
0.675 -0.0500004 0.00109987
0.6875 -0.0500004 0.00109987
0.7 -0.0500004 0.00109987
0.7125 -0.0500004 0.00109987
0.725 -0.0500004 0.00109987
0.7375 -0.0500004 0.00109987
0.75 -0.0500004 0.00109987
0.7625 -0.0500004 0.00109987
0.775 -0.0500004 0.00109987
0.7875 -0.0500004 0.00109987
0.8 -0.0500004 0.00109987
0.8125 -0.0500004 0.00109987
0.825 -0.0500004 0.00109987
0.8375 -0.0500004 0.00109987
0.85 -0.0500004 0.00109987
0.8625 -0.0500004 0.00109987
0.875 -0.0500004 0.00109987
0.8875 -0.0500004 0.00109987
0.9 -0.0500004 0.00109987
0.9125 -0.0500005 0.00109987
0.925 -0.0500005 0.00109988
0.9375 -0.0500005 0.00109988
0.95 -0.0500005 0.00109988
0.9625 -0.0500005 0.00109988
0.975 -0.0500005 0.00109988
0.9875 -0.0500005 0.00109988
1 -0.0500005 0.00109988
1.0125 -0.0500005 0.00109988
1.025 -0.0500005 0.00109988
1.0375 -0.0500005 0.00109988
1.05 -0.0500005 0.00109988
1.0625 -0.0500005 0.00109988
1.075 -0.0500005 0.00109988
1.0875 -0.0500005 0.00109988
1.1 -0.0500005 0.00109988
1.1125 -0.0500005 0.00109988
1.125 -0.0500005 0.00109988
1.1375 -0.0500005 0.00109988
1.15 -0.0500005 0.00109988
1.1625 -0.0500005 0.00109988
1.175 -0.0500005 0.00109988
1.1875 -0.0500005 0.00109988
1.2 -0.0500005 0.00109988
1.2125 -0.0500005 0.00109988
1.225 -0.0500005 0.00109988
1.2375 -0.0500005 0.00109989
1.25 -0.0500005 0.00109989
1.2625 -0.0500005 0.00109989
1.275 -0.0500005 0.00109989
1.2875 -0.0500005 0.00109989
1.3 -0.0500005 0.00109989
1.3125 -0.0500005 0.00109989
1.325 -0.0500005 0.00109989
1.3375 -0.0500005 0.00109989
1.35 -0.0500005 0.00109989
1.3625 -0.0500005 0.00109989
1.375 -0.0500005 0.00109989
1.3875 -0.0500005 0.00109989
1.4 -0.0500005 0.00109989
1.4125 -0.0500005 0.00109989
1.425 -0.0500005 0.00109989
1.4375 -0.0500005 0.0010999
1.45 -0.0500005 0.0010999
1.4625 -0.0500005 0.0010999
1.475 -0.0500005 0.0010999
1.4875 -0.0500005 0.0010999
1.5 -0.0500006 0.0010999
1.5125 -0.0500006 0.0010999
1.525 -0.0500006 0.0010999
1.5375 -0.0500006 0.0010999
1.55 -0.0500006 0.0010999
1.5625 -0.0500006 0.0010999
1.575 -0.0500006 0.0010999
1.5875 -0.0500006 0.0010999
1.6 -0.0500006 0.0010999
1.6125 -0.0500006 0.00109991
1.625 -0.0500006 0.00109991
1.6375 -0.0500006 0.00109991
1.65 -0.0500006 0.00109991
1.6625 -0.0500006 0.00109991
1.675 -0.0500006 0.00109991
1.6875 -0.0500006 0.00109991
1.7 -0.0500006 0.00109991
1.7125 -0.0500006 0.00109991
1.725 -0.0500006 0.00109991
1.7375 -0.0500006 0.00109991
1.75 -0.0500006 0.00109991
1.7625 -0.0500006 0.00109991
1.775 -0.0500006 0.00109992
1.7875 -0.0500006 0.00109992
1.8 -0.0500006 0.00109992
1.8125 -0.0500006 0.00109992
1.825 -0.0500006 0.00109992
1.8375 -0.0500006 0.00109992
1.85 -0.0500006 0.00109992
1.8625 -0.0500006 0.00109992
1.875 -0.0500006 0.00109992
1.8875 -0.0500006 0.00109992
1.9 -0.0500006 0.00109992
1.9125 -0.0500006 0.00109992
1.925 -0.0500006 0.00109993
1.9375 -0.0500006 0.00109993
1.95 -0.0500006 0.00109993
1.9625 -0.0500006 0.00109993
1.975 -0.0500006 0.00109993
1.9875 -0.0500006 0.00109993
2 -0.0500006 0.00109993
2.0125 -0.0500006 0.00109993
2.025 -0.0500006 0.00109993
2.0375 -0.0500006 0.00109993
2.05 -0.0500006 0.00109993
2.0625 -0.0500006 0.00109993
2.075 -0.0500006 0.00109994
2.0875 -0.0500006 0.00109994
2.1 -0.0500006 0.00109994
2.1125 -0.0500006 0.00109994
2.125 -0.0500006 0.00109994
2.1375 -0.0500006 0.00109994
2.15 -0.0500006 0.00109994
2.1625 -0.0500006 0.00109994
2.175 -0.0500007 0.00109994
2.1875 -0.0500007 0.00109994
2.2 -0.0500007 0.00109994
2.2125 -0.0500007 0.00109994
2.225 -0.0500007 0.00109995
2.2375 -0.0500007 0.00109995
2.25 -0.0500007 0.00109995
2.2625 -0.0500007 0.00109995
2.275 -0.0500007 0.00109995
2.2875 -0.0500007 0.00109995
2.3 -0.0500007 0.00109995
2.3125 -0.0500007 0.00109995
2.325 -0.0500007 0.00109995
2.3375 -0.0500007 0.00109995
2.35 -0.0500007 0.00109995
2.3625 -0.0500007 0.00109995
2.375 -0.0500007 0.00109995
2.3875 -0.0500007 0.00109995
2.4 -0.0500007 0.00109996
2.4125 -0.0500007 0.00109996
2.425 -0.0500007 0.00109996
2.4375 -0.0500007 0.00109996
2.45 -0.0500007 0.00109996
2.4625 -0.0500007 0.00109996
2.475 -0.0500007 0.00109996
2.4875 -0.0500007 0.00109996
2.5 -0.0500007 0.00109996
2.5125 -0.0500007 0.00109996
2.525 -0.0500007 0.00109996
2.5375 -0.0500007 0.00109996
2.55 -0.0500007 0.00109996
2.5625 -0.0500007 0.00109996
2.575 -0.0500007 0.00109997
2.5875 -0.0500007 0.00109997
2.6 -0.0500007 0.00109997
2.6125 -0.0500007 0.00109997
2.625 -0.0500007 0.00109997
2.6375 -0.0500007 0.00109997
2.65 -0.0500007 0.00109997
2.6625 -0.0500007 0.00109997
2.675 -0.0500007 0.00109997
2.6875 -0.0500007 0.00109997
2.7 -0.0500007 0.00109997
2.7125 -0.0500007 0.00109997
2.725 -0.0500007 0.00109997
2.7375 -0.0500007 0.00109997
2.75 -0.0500007 0.00109997
2.7625 -0.0500007 0.00109997
2.775 -0.0500007 0.00109998
2.7875 -0.0500007 0.00109998
2.8 -0.0500007 0.00109998
2.8125 -0.0500007 0.00109998
2.825 -0.0500007 0.00109998
2.8375 -0.0500007 0.00109998
2.85 -0.0500007 0.00109998
2.8625 -0.0500008 0.00109998
2.875 -0.0500008 0.00109998
2.8875 -0.0500008 0.00109998
2.9 -0.0500008 0.00109998
2.9125 -0.0500008 0.00109998
2.925 -0.0500008 0.00109998
2.9375 -0.0500008 0.00109998
2.95 -0.0500008 0.00109998
2.9625 -0.0500008 0.00109998
2.975 -0.0500008 0.00109998
2.9875 -0.0500008 0.00109998
3 -0.0500008 0.00109998
3.0125 -0.0500008 0.00109998
3.025 -0.0500008 0.00109999
3.0375 -0.0500008 0.00109999
3.05 -0.0500008 0.00109999
3.0625 -0.0500008 0.00109999
3.075 -0.0500008 0.00109999
3.0875 -0.0500008 0.00109999
3.1 -0.0500008 0.00109999
3.1125 -0.0500008 0.00109999
3.125 -0.0500008 0.00109999
3.1375 -0.0500008 0.00109999
3.15 -0.0500008 0.00109999
3.1625 -0.0500008 0.00109999
3.175 -0.0500008 0.00109999
3.1875 -0.0500008 0.00109999
3.2 -0.0500008 0.00109999
3.2125 -0.0500008 0.00109999
3.225 -0.0500008 0.00109999
3.2375 -0.0500008 0.00109999
3.25 -0.0500008 0.00109999
3.2625 -0.0500008 0.00109999
3.275 -0.0500008 0.00109999
3.2875 -0.0500008 0.00109999
3.3 -0.0500008 0.00109999
3.3125 -0.0500008 0.00109999
3.325 -0.0500008 0.00109999
3.3375 -0.0500008 0.00109999
3.35 -0.0500008 0.00109999
3.3625 -0.0500008 0.00109999
[...]
POINT_DATA 15780
 FIELD attributes 1
U 3 15780 float
30.0002 	-7.01883e-06 	-6.30574e-06 30.0002 	-6.84428e-06 	-6.51438e-06 30.0002 	-6.66973e-06 	-6.72303e-06 30.0002 	-6.49518e-06 	-6.93168e-06 30.0002 	-6.32063e-06 	-7.14032e-06 30.0002 	-6.14607e-06 	-7.34897e-06 30.0004 	-1.23834e-05 	-1.26195e-06 30.0004 	-1.23834e-05 	-1.26195e-06 30.0004 	-1.23834e-05 	-1.26195e-06 30.0004 	-1.23834e-05 	-1.26195e-06 30.0002 	-6.83557e-08 	-6.8423e-06 30.0005 	-1.07085e-05 	-1.68851e-06 30.0005 	-1.07085e-05 	-1.68851e-06 30.0005 	-1.07085e-05 	-1.68851e-06 30.0005 	-1.07085e-05 	-1.68851e-06 30.0002 	-7.07521e-08 	-6.59441e-06 30.0005 	-9.95915e-06 	-2.08608e-06 30.0005 	-9.95914e-06 	-2.08608e-06 30.0005 	-9.95913e-06 	-2.08608e-06 30.0005 	-9.95912e-06 	-2.08608e-06 30.0003 	-4.59447e-06 	-6.24659e-06 30.0005 	-9.691e-06 	-2.3584e-06 30.0005 	-9.69099e-06 	-2.3584e-06 30.0005 	-9.69098e-06 	-2.35839e-06 30.0005 	-9.69097e-06 	-2.35839e-06 30.0003 	-7.43885e-08 	-6.57827e-06 30.0005 	-9.52124e-06 	-2.5095e-06 30.0005 	-9.52123e-06 	-2.50949e-06 30.0005 	-9.52123e-06 	-2.50949e-06 30.0005 	-9.52122e-06 	-2.50949e-06 30.0003 	-7.64234e-08 	-6.52832e-06 30.0005 	-9.38928e-06 	-2.56096e-06 30.0005 	-9.38927e-06 	-2.56096e-06 30.0005 	-9.38926e-06 	-2.56096e-06 30.0005 	-9.38926e-06 	-2.56096e-06 30.0003 	-4.26903e-06 	-6.08242e-06 30.0005 	-9.2845e-06 	-2.55648e-06 30.0005 	-9.28449e-06 	-2.55647e-06 30.0005 	-9.28448e-06 	-2.55647e-06 30.0005 	-9.28447e-06 	-2.55647e-06 30.0003 	-4.201e-06 	-5.97207e-06 30.0006 	-9.18718e-06 	-2.52584e-06 30.0006 	-9.18717e-06 	-2.52583e-06 30.0006 	-9.18716e-06 	-2.52583e-06 30.0006 	-9.18715e-06 	-2.52583e-06 30.0003 	-8.17234e-08 	-6.19453e-06 30.0006 	-9.09178e-06 	-2.47899e-06 30.0006 	-9.09177e-06 	-2.47899e-06 30.0006 	-9.09177e-06 	-2.47899e-06 30.0006 	-9.09176e-06 	-2.47899e-06 30.0003 	-8.32515e-08 	-6.05008e-06 30.0006 	-9.00109e-06 	-2.41654e-06 30.0006 	-9.00108e-06 	-2.41654e-06 30.0006 	-9.00107e-06 	-2.41654e-06 30.0006 	-9.00107e-06 	-2.41654e-06 30.0003 	-8.49739e-08 	-5.88557e-06 30.0006 	-8.9081e-06 	-2.33571e-06 30.0006 	-8.90809e-06 	-2.33571e-06 30.0006 	-8.90808e-06 	-2.33571e-06 30.0006 	-8.90808e-06 	-2.33571e-06 30.0003 	-3.93857e-06 	-5.36151e-06 30.0006 	-8.80794e-06 	-2.24203e-06 30.0006 	-8.80793e-06 	-2.24203e-06 30.0006 	-8.80792e-06 	-2.24203e-06 30.0006 	-8.80792e-06 	-2.24203e-06 30.0003 	-3.86435e-06 	-5.1645e-06 30.0006 	-8.70519e-06 	-2.13317e-06 30.0006 	-8.70518e-06 	-2.13317e-06 30.0006 	-8.70517e-06 	-2.13317e-06 30.0006 	-8.70516e-06 	-2.13317e-06 30.0003 	-9.1203e-08 	-5.28534e-06 30.0006 	-8.59813e-06 	-2.01647e-06 30.0006 	-8.59812e-06 	-2.01647e-06 30.0006 	-8.59812e-06 	-2.01647e-06 30.0006 	-8.59811e-06 	-2.01646e-06 30.0003 	-3.70632e-06 	-4.72146e-06 30.0007 	-8.48687e-06 	-1.88766e-06 30.0007 	-8.48686e-06 	-1.88766e-06 30.0007 	-8.48685e-06 	-1.88765e-06 30.0007 	-8.48685e-06 	-1.88765e-06 30.0003 	-3.62191e-06 	-4.47481e-06 30.0007 	-8.37115e-06 	-1.74517e-06 30.0007 	-8.37114e-06 	-1.74517e-06 30.0007 	-8.37114e-06 	-1.74517e-06 30.0007 	-8.37113e-06 	-1.74517e-06 30.0004 	-9.66861e-08 	-4.54294e-06 30.0007 	-8.25953e-06 	-1.60667e-06 30.0007 	-8.25952e-06 	-1.60667e-06 30.0007 	-8.25952e-06 	-1.60667e-06 30.0007 	-8.25951e-06 	-1.60667e-06 30.0004 	-9.93994e-08 	-4.27188e-06 30.0007 	-8.14723e-06 	-1.47012e-06 30.0007 	-8.14723e-06 	-1.47012e-06 30.0007 	-8.14723e-06 	-1.47012e-06 30.0007 	-8.14722e-06 	-1.47012e-06 30.0004 	-1.01017e-07 	-3.98943e-06 30.0007 	-8.01765e-06 	-1.32365e-06 30.0007 	-8.01764e-06 	-1.32365e-06 30.0007 	-8.01764e-06 	-1.32364e-06 30.0007 	-8.01764e-06 	-1.32364e-06 30.0004 	-3.2485e-06 	-3.37387e-06 30.0007 	-7.87669e-06 	-1.16542e-06 30.0007 	-7.87668e-06 	-1.16542e-06 30.0007 	-7.87668e-06 	-1.16542e-06 30.0007 	-7.87668e-06 	-1.16542e-06 30.0004 	-9.89171e-08 	-3.39795e-06 30.0007 	-7.74382e-06 	-1.00468e-06 30.0007 	-7.74382e-06 	-1.00468e-06 30.0007 	-7.74382e-06 	-1.00468e-06 30.0007 	-7.74381e-06 	-1.00468e-06 30.0004 	-9.95237e-08 	-3.09674e-06 30.0007 	-7.62061e-06 	-8.37941e-07 30.0007 	-7.62061e-06 	-8.3794e-07 30.0007 	-7.62061e-06 	-8.3794e-07 30.0007 	-7.6206e-06 	-8.3794e-07 30.0004 	-2.93624e-06 	-2.48325e-06 30.0007 	-7.49186e-06 	-6.69032e-07 30.0007 	-7.49186e-06 	-6.69032e-07 30.0007 	-7.49185e-06 	-6.69032e-07 30.0007 	-7.49185e-06 	-6.69031e-07 30.0004 	-2.83093e-06 	-2.17946e-06 30.0007 	-7.36328e-06 	-4.94729e-07 30.0007 	-7.36328e-06 	-4.94729e-07 30.0007 	-7.36328e-06 	-4.94729e-07 30.0007 	-7.36328e-06 	-4.94729e-07 30.0004 	-1.12052e-07 	-2.16865e-06 30.0007 	-7.22048e-06 	-3.20573e-07 30.0007 	-7.22048e-06 	-3.20573e-07 30.0007 	-7.22048e-06 	-3.20573e-07 30.0007 	-7.22048e-06 	-3.20573e-07 30.0004 	-1.12547e-07 	-1.85431e-06 30.0007 	-7.09729e-06 	-1.46059e-07 30.0007 	-7.09728e-06 	-1.46059e-07 30.0007 	-7.09728e-06 	-1.46059e-07 30.0007 	-7.09728e-06 	-1.46059e-07 30.0004 	-1.12405e-07 	-1.55177e-06 30.0007 	-6.97207e-06 	3.094e-08 30.0007 	-6.97207e-06 	3.094e-08 30.0007 	-6.97207e-06 	3.094e-08 30.0007 	-6.97207e-06 	3.094e-08 30.0004 	-2.43613e-06 	-9.62655e-07 30.0007 	-6.84366e-06 	2.03909e-07 30.0007 	-6.84366e-06 	2.03909e-07 30.0007 	-6.84366e-06 	2.03909e-07 30.0007 	-6.84366e-06 	2.03909e-07 30.0004 	-2.33941e-06 	-6.85962e-07 30.0007 	-6.72023e-06 	3.81206e-07 30.0007 	-6.72023e-06 	3.81206e-07 30.0007 	-6.72023e-06 	3.81206e-07 30.0007 	-6.72023e-06 	3.81206e-07 30.0004 	-1.12819e-07 	-7.15035e-07 30.0007 	-6.6208e-06 	5.55069e-07 30.0007 	-6.6208e-06 	5.55069e-07 30.0007 	-6.6208e-06 	5.55069e-07 30.0007 	-6.6208e-06 	5.55069e-07 30.0004 	-2.15901e-06 	-1.45892e-07 30.0007 	-6.52268e-06 	7.21548e-07 30.0007 	-6.52268e-06 	7.21548e-07 30.0007 	-6.52268e-06 	7.21548e-07 30.0007 	-6.52268e-06 	7.21548e-07 30.0004 	-2.07587e-06 	1.14852e-07 30.0007 	-6.4207e-06 	8.7376e-07 30.0007 	-6.4207e-06 	8.7376e-07 30.0007 	-6.4207e-06 	8.7376e-07 30.0007 	-6.42071e-06 	8.73761e-07 30.0004 	-1.23656e-07 	6.93054e-08 30.0007 	-6.31408e-06 	1.01548e-06 30.0007 	-6.31408e-06 	1.01548e-06 30.0007 	-6.31409e-06 	1.01548e-06 30.0007 	-6.31409e-06 	1.01548e-06 30.0004 	-1.22959e-07 	3.16977e-07 30.0007 	-6.21656e-06 	1.14104e-06 30.0007 	-6.21657e-06 	1.14104e-06 30.0007 	-6.21657e-06 	1.14104e-06 30.0007 	-6.21657e-06 	1.14104e-06 30.0004 	-1.24948e-07 	5.49399e-07 30.0007 	-6.12602e-06 	1.25833e-06 30.0007 	-6.12602e-06 	1.25833e-06 30.0007 	-6.12602e-06 	1.25833e-06 30.0007 	-6.12603e-06 	1.25833e-06 30.0004 	-1.7731e-06 	1.03641e-06 30.0007 	-6.03803e-06 	1.37427e-06 30.0007 	-6.03803e-06 	1.37427e-06 30.0007 	-6.03803e-06 	1.37427e-06 30.0007 	-6.03804e-06 	1.37427e-06 30.0004 	-1.30043e-07 	9.43559e-07 30.0007 	-5.97245e-06 	1.49284e-06 30.0007 	-5.97246e-06 	1.49284e-06 30.0007 	-5.97246e-06 	1.49284e-06 30.0007 	-5.97246e-06 	1.49285e-06 30.0004 	-1.34072e-07 	1.11151e-06 30.0007 	-5.90201e-06 	1.59505e-06 30.0007 	-5.90201e-06 	1.59506e-06 30.0007 	-5.90202e-06 	1.59506e-06 30.0007 	-5.90202e-06 	1.59506e-06 30.0004 	-1.60439e-06 	1.54072e-06 30.0007 	-5.83118e-06 	1.6765e-06 30.0007 	-5.83119e-06 	1.6765e-06 30.0007 	-5.83119e-06 	1.6765e-06 30.0007 	-5.83119e-06 	1.6765e-06 30.0003 	-1.55405e-06 	1.67802e-06 30.0007 	-5.75465e-06 	1.74602e-06 30.0007 	-5.75465e-06 	1.74602e-06 30.0007 	-5.75466e-06 	1.74603e-06 30.0007 	-5.75466e-06 	1.74603e-06 30.0003 	-1.36593e-07 	1.52484e-06 30.0006 	-5.66792e-06 	1.80224e-06 30.0006 	-5.66793e-06 	1.80224e-06 30.0006 	-5.66793e-06 	1.80224e-06 30.0006 	-5.66794e-06 	1.80224e-06 30.0003 	-1.34827e-07 	1.63019e-06 30.0006 	-5.59566e-06 	1.85033e-06 30.0006 	-5.59566e-06 	1.85033e-06 30.0006 	-5.59567e-06 	1.85033e-06 30.0006 	-5.59567e-06 	1.85033e-06 30.0003 	-1.34109e-07 	1.72074e-06 30.0006 	-5.53342e-06 	1.89045e-06 30.0006 	-5.53343e-06 	1.89045e-06 30.0006 	-5.53343e-06 	1.89046e-06 30.0006 	-5.53344e-06 	1.89046e-06 30.0003 	-1.3826e-06 	2.0675e-06 30.0006 	-5.47911e-06 	1.92155e-06 30.0006 	-5.47912e-06 	1.92155e-06 30.0006 	-5.47912e-06 	1.92155e-06 30.0006 	-5.47913e-06 	1.92155e-06 30.0003 	-1.35618e-06 	2.12809e-06 30.0006 	-5.43328e-06 	1.94345e-06 30.0006 	-5.43328e-06 	1.94345e-06 30.0006 	-5.43329e-06 	1.94345e-06 30.0006 	-5.43329e-06 	1.94345e-06 30.0003 	-1.40171e-07 	1.90299e-06 30.0006 	-5.39638e-06 	1.9553e-06 30.0006 	-5.39639e-06 	1.9553e-06 30.0006 	-5.39639e-06 	1.9553e-06 30.0006 	-5.3964e-06 	1.95531e-06 30.0003 	-1.32362e-06 	2.20664e-06 30.0006 	-5.37129e-06 	1.95965e-06 30.0006 	-5.37129e-06 	1.95965e-06 30.0006 	-5.3713e-06 	1.95965e-06 30.0006 	-5.3713e-06 	1.95965e-06 30.0003 	-1.31686e-06 	2.22526e-06 30.0006 	-5.33991e-06 	1.95037e-06 30.0006 	-5.33992e-06 	1.95037e-06 30.0006 	-5.33992e-06 	1.95037e-06 30.0006 	-5.33993e-06 	1.95038e-06 30.0003 	-1.43425e-07 	1.96343e-06 30.0005 	-5.32516e-06 	1.93907e-06 30.0005 	-5.32517e-06 	1.93907e-06 30.0005 	-5.32517e-06 	1.93907e-06 30.0005 	-5.32518e-06 	1.93907e-06 30.0003 	-1.45733e-07 	1.96107e-06 30.0005 	-5.30062e-06 	1.91686e-06 30.0005 	-5.30063e-06 	1.91686e-06 30.0005 	-5.30063e-06 	1.91686e-06 30.0005 	-5.30064e-06 	1.91686e-06 30.0003 	-1.47626e-07 	1.94698e-06 30.0005 	-5.27742e-06 	1.88706e-06 30.0005 	-5.27743e-06 	1.88706e-06 30.0005 	-5.27743e-06 	1.88706e-06 30.0005 	-5.27743e-06 	1.88706e-06 30.0003 	-1.30588e-06 	2.18135e-06 30.0005 	-5.26182e-06 	1.84863e-06 30.0005 	-5.26182e-06 	1.84863e-06 30.0005 	-5.26182e-06 	1.84863e-06 30.0005 	-5.26183e-06 	1.84863e-06 30.0003 	-1.52734e-07 	1.88639e-06 30.0005 	-5.29023e-06 	1.80817e-06 30.0005 	-5.29023e-06 	1.80818e-06 30.0005 	-5.29023e-06 	1.80818e-06 30.0005 	-5.29024e-06 	1.80818e-06 30.0003 	-1.58205e-07 	1.84282e-06 30.0005 	-5.28526e-06 	1.76074e-06 30.0005 	-5.28527e-06 	1.76074e-06 30.0005 	-5.28527e-06 	1.76074e-06 30.0005 	-5.28527e-06 	1.76075e-06 30.0003 	-1.34304e-06 	2.04543e-06 30.0005 	-5.28727e-06 	1.70604e-06 30.0005 	-5.28728e-06 	1.70605e-06 30.0005 	-5.28728e-06 	1.70605e-06 30.0005 	-5.28729e-06 	1.70605e-06 30.0003 	-1.36133e-06 	1.98447e-06 30.0005 	-5.29146e-06 	1.65154e-06 30.0005 	-5.29146e-06 	1.65154e-06 30.0005 	-5.29147e-06 	1.65154e-06 30.0005 	-5.29147e-06 	1.65154e-06 30.0002 	-1.51023e-07 	1.66466e-06 30.0005 	-5.28045e-06 	1.59033e-06 30.0005 	-5.28045e-06 	1.59033e-06 30.0005 	-5.28046e-06 	1.59033e-06 30.0005 	-5.28046e-06 	1.59033e-06 30.0002 	-1.46481e-07 	1.59353e-06 30.0004 	-5.30015e-06 	1.52703e-06 30.0004 	-5.30015e-06 	1.52703e-06 30.0004 	-5.30015e-06 	1.52703e-06 30.0004 	-5.30016e-06 	1.52703e-06 30.0002 	-1.46818e-07 	1.51721e-06 30.0004 	-5.32513e-06 	1.46091e-06 30.0004 	-5.32513e-06 	1.46091e-06 30.0004 	-5.32513e-06 	1.46091e-06 30.0004 	-5.32514e-06 	1.46091e-06 30.0002 	-1.49073e-06 	1.68786e-06 30.0004 	-5.34857e-06 	1.39331e-06 30.0004 	-5.34857e-06 	1.39331e-06 30.0004 	-5.34858e-06 	1.39331e-06 30.0004 	-5.34858e-06 	1.39331e-06 30.0002 	-1.53273e-06 	1.60346e-06 30.0004 	-5.36002e-06 	1.32401e-06 30.0004 	-5.36002e-06 	1.32401e-06 30.0004 	-5.36002e-06 	1.32401e-06 30.0004 	-5.36002e-06 	1.32401e-06 30.0002 	-1.54133e-07 	1.26742e-06 30.0004 	-5.37443e-06 	1.25275e-06 30.0004 	-5.37443e-06 	1.25275e-06 30.0004 	-5.37443e-06 	1.25275e-06 30.0004 	-5.37444e-06 	1.25275e-06 30.0002 	-1.61659e-06 	1.42945e-06 30.0004 	-5.38676e-06 	1.18326e-06 30.0004 	-5.38676e-06 	1.18326e-06 30.0004 	-5.38677e-06 	1.18326e-06 30.0004 	-5.38677e-06 	1.18327e-06 30.0002 	-1.66033e-06 	1.34093e-06 30.0004 	-5.42672e-06 	1.10996e-06 30.0004 	-5.42672e-06 	1.10996e-06 30.0004 	-5.42672e-06 	1.10996e-06 30.0004 	-5.42673e-06 	1.10996e-06 30.0002 	-1.63958e-07 	1.00435e-06 30.0004 	-5.44872e-06 	1.04263e-06 30.0004 	-5.44873e-06 	1.04264e-06 30.0004 	-5.44873e-06 	1.04264e-06 30.0004 	-5.44873e-06 	1.04264e-06 30.0002 	-1.75655e-07 	9.16889e-07 30.0004 	-5.44364e-06 	9.71079e-07 30.0004 	-5.44365e-06 	9.71079e-07 30.0004 	-5.44365e-06 	9.7108e-07 30.0004 	-5.44365e-06 	9.7108e-07 30.0002 	-1.81907e-07 	8.27861e-07 30.0004 	-5.43861e-06 	8.98314e-07 30.0004 	-5.43861e-06 	8.98314e-07 30.0004 	-5.43862e-06 	8.98315e-07 30.0004 	-5.43862e-06 	8.98315e-07 30.0002 	-1.78093e-06 	9.80516e-07 30.0004 	-5.44475e-06 	8.24763e-07 30.0004 	-5.44475e-06 	8.24763e-07 30.0004 	-5.44475e-06 	8.24763e-07 30.0004 	-5.44476e-06 	8.24764e-07 30.0002 	-1.69225e-07 	6.48001e-07 30.0003 	-5.46576e-06 	7.50902e-07 30.0003 	-5.46576e-06 	7.50902e-07 30.0003 	-5.46576e-06 	7.50903e-07 30.0003 	-5.46576e-06 	7.50903e-07 30.0002 	-1.62983e-07 	5.58639e-07 30.0003 	-5.49988e-06 	6.76959e-07 30.0003 	-5.49988e-06 	6.76959e-07 30.0003 	-5.49988e-06 	6.7696e-07 30.0003 	-5.49988e-06 	6.7696e-07 30.0002 	-1.90174e-06 	7.06096e-07 30.0003 	-5.54293e-06 	6.03836e-07 30.0003 	-5.54293e-06 	6.03837e-07 30.0003 	-5.54293e-06 	6.03837e-07 30.0003 	-5.54293e-06 	6.03837e-07 30.0002 	-1.95342e-06 	6.15249e-07 30.0003 	-5.57605e-06 	5.37748e-07 30.0003 	-5.57605e-06 	5.37748e-07 30.0003 	-5.57605e-06 	5.37748e-07 30.0003 	-5.57605e-06 	5.37748e-07 30.0002 	-1.37976e-07 	2.83266e-07 30.0003 	-5.58773e-06 	4.69193e-07 30.0003 	-5.58773e-06 	4.69193e-07 30.0003 	-5.58773e-06 	4.69193e-07 30.0003 	-5.58773e-06 	4.69193e-07 30.0002 	-1.33921e-07 	1.98141e-07 30.0003 	-5.6592e-06 	4.0395e-07 30.0003 	-5.6592e-06 	4.0395e-07 30.0003 	-5.6592e-06 	4.0395e-07 30.0003 	-5.65921e-06 	4.0395e-07 30.0002 	-1.39692e-07 	1.15327e-07 30.0003 	-5.72326e-06 	3.355e-07 30.0003 	-5.72326e-06 	3.355e-07 30.0003 	-5.72326e-06 	3.355e-07 30.0003 	-5.72326e-06 	3.355e-07 30.0002 	-2.20829e-06 	2.69904e-07 30.0003 	-5.77461e-06 	2.69817e-07 30.0003 	-5.77461e-06 	2.69817e-07 30.0003 	-5.77461e-06 	2.69817e-07 30.0003 	-5.77461e-06 	2.69817e-07 30.0002 	-2.27134e-06 	1.89516e-07 30.0003 	-5.79294e-06 	1.99196e-07 30.0003 	-5.79294e-06 	1.99196e-07 30.0003 	-5.79294e-06 	1.99196e-07 30.0003 	-5.79294e-06 	1.99196e-07 30.0002 	-1.61681e-07 	-1.16881e-07 30.0003 	-5.88228e-06 	1.39018e-07 30.0003 	-5.88228e-06 	1.39018e-07 30.0003 	-5.88228e-06 	1.39018e-07 30.0003 	-5.88228e-06 	1.39018e-07 30.0002 	-2.40723e-06 	3.88553e-08 30.0003 	-5.89053e-06 	8.21143e-08 30.0003 	-5.89053e-06 	8.21143e-08 30.0003 	-5.89053e-06 	8.21143e-08 30.0003 	-5.89053e-06 	8.21143e-08 30.0002 	-2.46322e-06 	-3.1891e-08 30.0003 	-6.01762e-06 	2.91567e-08 30.0003 	-6.01762e-06 	2.91567e-08 30.0003 	-6.01762e-06 	2.91567e-08 30.0003 	-6.01762e-06 	2.91567e-08 30.0002 	-2.10812e-07 	-3.30283e-07 30.0003 	-6.04078e-06 	-1.49206e-08 30.0003 	-6.04078e-06 	-1.49206e-08 30.0003 	-6.04078e-06 	-1.49206e-08 30.0003 	-6.04078e-06 	-1.49206e-08 30.0002 	-2.15456e-07 	-3.94424e-07 30.0003 	-6.01609e-06 	-6.5572e-08 30.0003 	-6.01609e-06 	-6.5572e-08 30.0003 	-6.01609e-06 	-6.5572e-08 30.0003 	-6.01609e-06 	-6.5572e-08 30.0002 	-2.07845e-07 	-4.57393e-07 30.0003 	-5.99583e-06 	-1.17812e-07 30.0003 	-5.99583e-06 	-1.17812e-07 30.0003 	-5.99583e-06 	-1.17812e-07 30.0003 	-5.99583e-06 	-1.17812e-07 30.0002 	-2.54426e-06 	-2.90085e-07 30.0003 	-5.985e-06 	-1.69445e-07 30.0003 	-5.985e-06 	-1.69445e-07 30.0003 	-5.985e-06 	-1.69445e-07 30.0003 	-5.985e-06 	-1.69445e-07 30.0002 	-1.66441e-07 	-5.72823e-07 30.0003 	-5.87375e-06 	-2.23676e-07 30.0003 	-5.87375e-06 	-2.23676e-07 30.0003 	-5.87375e-06 	-2.23676e-07 30.0003 	-5.87375e-06 	-2.23676e-07 30.0002 	-1.3782e-07 	-6.26953e-07 30.0003 	-5.89379e-06 	-2.714e-07 30.0003 	-5.89378e-06 	-2.714e-07 30.0003 	-5.89378e-06 	-2.714e-07 30.0003 	-5.89378e-06 	-2.714e-07 30.0002 	-2.59038e-06 	-4.71058e-07 30.0003 	-5.91776e-06 	-3.16596e-07 30.0003 	-5.91776e-06 	-3.16596e-07 30.0003 	-5.91776e-06 	-3.16596e-07 30.0003 	-5.91776e-06 	-3.16596e-07 30.0002 	-2.62899e-06 	-5.28464e-07 30.0003 	-5.91509e-06 	-3.51417e-07 30.0003 	-5.91509e-06 	-3.51417e-07 30.0003 	-5.91509e-06 	-3.51417e-07 30.0003 	-5.91508e-06 	-3.51417e-07 30.0002 	-1.0103e-07 	-7.98962e-07 30.0003 	-5.90691e-06 	-3.92577e-07 30.0003 	-5.90691e-06 	-3.92577e-07 30.0003 	-5.9069e-06 	-3.92577e-07 30.0003 	-5.9069e-06 	-3.92577e-07 30.0001 	-9.9916e-08 	-8.51173e-07 30.0003 	-5.99673e-06 	-4.312e-07 30.0003 	-5.99673e-06 	-4.312e-07 30.0003 	-5.99673e-06 	-4.312e-07 30.0003 	-5.99673e-06 	-4.312e-07 30.0001 	-1.10838e-07 	-8.9974e-07 30.0003 	-6.07099e-06 	-4.74955e-07 30.0003 	-6.07099e-06 	-4.74954e-07 30.0003 	-6.07099e-06 	-4.74954e-07 30.0003 	-6.07099e-06 	-4.74954e-07 30.0001 	-2.88337e-06 	-7.372e-07 30.0003 	-6.12584e-06 	-5.12712e-07 30.0003 	-6.12584e-06 	-5.12712e-07 30.0003 	-6.12584e-06 	-5.12712e-07 30.0003 	-6.12584e-06 	-5.12712e-07 30.0001 	-2.94813e-06 	-7.85439e-07 30.0003 	-6.12824e-06 	-5.61119e-07 30.0003 	-6.12824e-06 	-5.61119e-07 30.0003 	-6.12824e-06 	-5.61119e-07 30.0003 	-6.12824e-06 	-5.61119e-07 30.0001 	-1.5876e-07 	-1.03797e-06 30.0003 	-6.31483e-06 	-5.92208e-07 30.0003 	-6.31483e-06 	-5.92208e-07 30.0003 	-6.31483e-06 	-5.92208e-07 30.0003 	-6.31483e-06 	-5.92208e-07 30.0001 	-3.11664e-06 	-8.65005e-07 30.0003 	-6.2952e-06 	-6.2243e-07 30.0003 	-6.29519e-06 	-6.22429e-07 30.0003 	-6.29519e-06 	-6.22429e-07 30.0003 	-6.29519e-06 	-6.22429e-07 30.0001 	-3.16991e-06 	-9.00593e-07 30.0003 	-6.50614e-06 	-6.53609e-07 30.0003 	-6.50614e-06 	-6.53609e-07 30.0003 	-6.50614e-06 	-6.53609e-07 30.0003 	-6.50614e-06 	-6.53609e-07 30.0001 	-2.51734e-07 	-1.14092e-06 30.0003 	-6.52774e-06 	-6.75279e-07 30.0003 	-6.52774e-06 	-6.75278e-07 30.0003 	-6.52774e-06 	-6.75278e-07 30.0003 	-6.52773e-06 	-6.75278e-07 30.0001 	-2.33879e-07 	-1.16597e-06 30.0003 	-6.4617e-06 	-7.03304e-07 30.0003 	-6.46169e-06 	-7.03304e-07 30.0003 	-6.46169e-06 	-7.03304e-07 30.0003 	-6.46169e-06 	-7.03303e-07 30.0001 	-1.98376e-07 	-1.19553e-06 30.0003 	-6.42277e-06 	-7.29382e-07 30.0003 	-6.42277e-06 	-7.29382e-07 30.0003 	-6.42277e-06 	-7.29382e-07 30.0003 	-6.42277e-06 	-7.29381e-07 30.0001 	-3.16117e-06 	-1.02786e-06 30.0003 	-6.39756e-06 	-7.50346e-07 30.0003 	-6.39756e-06 	-7.50346e-07 30.0003 	-6.39756e-06 	-7.50346e-07 30.0003 	-6.39755e-06 	-7.50346e-07 30.0001 	-1.36257e-07 	-1.25613e-06 30.0003 	-6.15736e-06 	-7.8223e-07 30.0003 	-6.15736e-06 	-7.8223e-07 30.0003 	-6.15736e-06 	-7.82229e-07 30.0003 	-6.15736e-06 	-7.82229e-07 30.0001 	-9.20914e-08 	-1.27632e-06 30.0003 	-6.19172e-06 	-8.08965e-07 30.0003 	-6.19171e-06 	-8.08965e-07 30.0003 	-6.19171e-06 	-8.08965e-07 30.0003 	-6.19171e-06 	-8.08965e-07 30.0001 	-3.13429e-06 	-1.1221e-06 30.0003 	-6.22272e-06 	-8.33038e-07 30.0003 	-6.22271e-06 	-8.33038e-07 30.0003 	-6.22271e-06 	-8.33038e-07 30.0003 	-6.22271e-06 	-8.33037e-07 30.0001 	-3.16053e-06 	-1.14688e-06 30.0003 	-6.19108e-06 	-8.37275e-07 30.0003 	-6.19108e-06 	-8.37275e-07 30.0003 	-6.19108e-06 	-8.37274e-07 30.0003 	-6.19107e-06 	-8.37274e-07 30.0001 	-7.51831e-08 	-1.36026e-06 30.0003 	-6.15793e-06 	-8.54441e-07 30.0003 	-6.15793e-06 	-8.54441e-07 30.0003 	-6.15793e-06 	-8.5444e-07 30.0003 	-6.15793e-06 	-8.5444e-07 30.0001 	-7.68225e-08 	-1.38348e-06 30.0003 	-6.25066e-06 	-8.66884e-07 30.0003 	-6.25065e-06 	-8.66883e-07 30.0003 	-6.25065e-06 	-8.66883e-07 30.0003 	-6.25065e-06 	-8.66883e-07 30.0001 	-8.9999e-08 	-1.40327e-06 30.0003 	-6.31793e-06 	-8.92355e-07 30.0003 	-6.31793e-06 	-8.92355e-07 30.0003 	-6.31792e-06 	-8.92354e-07 30.0003 	-6.31792e-06 	-8.92354e-07 30.0001 	-3.37819e-06 	-1.24357e-06 30.0003 	-6.36536e-06 	-9.06063e-07 30.0003 	-6.36536e-06 	-9.06063e-07 30.0003 	-6.36536e-06 	-9.06063e-07 30.0003 	-6.36536e-06 	-9.06062e-07 30.0001 	-3.42885e-06 	-1.26402e-06 30.0003 	-6.30767e-06 	-9.34439e-07 30.0003 	-6.30766e-06 	-9.34439e-07 30.0003 	-6.30766e-06 	-9.34439e-07 30.0003 	-6.30766e-06 	-9.34438e-07 30.0001 	-1.58547e-07 	-1.47185e-06 30.0003 	-6.59288e-06 	-9.52114e-07 30.0003 	-6.59288e-06 	-9.52113e-07 30.0003 	-6.59288e-06 	-9.52113e-07 30.0003 	-6.59287e-06 	-9.52112e-07 30.0001 	-3.62164e-06 	-1.2957e-06 30.0003 	-6.49981e-06 	-9.5964e-07 30.0003 	-6.4998e-06 	-9.5964e-07 30.0003 	-6.4998e-06 	-9.5964e-07 30.0003 	-6.4998e-06 	-9.59639e-07 30.0001 	-3.66106e-06 	-1.3095e-06 30.0003 	-6.78832e-06 	-9.80496e-07 30.0003 	-6.78831e-06 	-9.80496e-07 30.0003 	-6.78831e-06 	-9.80496e-07 30.0003 	-6.78831e-06 	-9.80