# vtk DataFile Version 2.0
track0
ASCII
DATASET POLYDATA
POINTS 15780 float
-1.001 -0.05 0.0011
-1.0008 -0.05 0.0011
-1.0006 -0.05 0.0011
-1.0004 -0.05 0.0011
-1.0002 -0.05 0.0011
-1 -0.05 0.0011
-0.9875 -0.05 0.0011
-0.975 -0.05 0.0011
-0.9625 -0.05 0.0011
-0.95 -0.05 0.0011
-0.9375 -0.05 0.00109999
-0.925 -0.05 0.00109999
-0.9125 -0.05 0.00109999
-0.9 -0.05 0.00109999
-0.8875 -0.05 0.00109999
-0.875 -0.05 0.00109999
-0.8625 -0.05 0.00109999
-0.85 -0.05 0.00109999
-0.8375 -0.05 0.00109998
-0.825 -0.0500001 0.00109998
-0.8125 -0.0500001 0.00109998
-0.8 -0.0500001 0.00109998
-0.7875 -0.0500001 0.00109998
-0.775 -0.0500001 0.00109998
-0.7625 -0.0500001 0.00109998
-0.75 -0.0500001 0.00109998
-0.7375 -0.0500001 0.00109997
-0.725 -0.0500001 0.00109997
-0.7125 -0.0500001 0.00109997
-0.7 -0.0500001 0.00109997
-0.6875 -0.0500001 0.00109997
-0.675 -0.0500001 0.00109997
-0.6625 -0.0500001 0.00109997
-0.65 -0.0500001 0.00109996
-0.6375 -0.0500001 0.00109996
-0.625 -0.0500001 0.00109996
-0.6125 -0.0500001 0.00109996
-0.6 -0.0500001 0.00109996
-0.5875 -0.0500001 0.00109996
-0.575 -0.0500001 0.00109996
-0.5625 -0.0500001 0.00109996
-0.55 -0.0500001 0.00109995
-0.5375 -0.0500001 0.00109995
-0.525 -0.0500001 0.00109995
-0.5125 -0.0500001 0.00109995
-0.5 -0.0500001 0.00109995
-0.4875 -0.0500001 0.00109995
-0.475 -0.0500001 0.00109995
-0.4625 -0.0500001 0.00109994
-0.45 -0.0500002 0.00109994
-0.4375 -0.0500002 0.00109994
-0.425 -0.0500002 0.00109994
-0.4125 -0.0500002 0.00109994
-0.4 -0.0500002 0.00109994
-0.3875 -0.0500002 0.00109994
-0.375 -0.0500002 0.00109994
-0.3625 -0.0500002 0.00109993
-0.35 -0.0500002 0.00109993
-0.3375 -0.0500002 0.00109993
-0.325 -0.0500002 0.00109993
-0.3125 -0.0500002 0.00109993
-0.3 -0.0500002 0.00109993
-0.2875 -0.0500002 0.00109993
-0.275 -0.0500002 0.00109993
-0.2625 -0.0500002 0.00109992
-0.25 -0.0500002 0.00109992
-0.2375 -0.0500002 0.00109992
-0.225 -0.0500002 0.00109992
-0.2125 -0.0500002 0.00109992
-0.2 -0.0500002 0.00109992
-0.1875 -0.0500002 0.00109992
-0.175 -0.0500002 0.00109992
-0.1625 -0.0500002 0.00109991
-0.15 -0.0500002 0.00109991
-0.1375 -0.0500002 0.00109991
-0.125 -0.0500002 0.00109991
-0.1125 -0.0500002 0.00109991
-0.1 -0.0500002 0.00109991
-0.0875 -0.0500002 0.00109991
-0.075 -0.0500002 0.00109991
-0.0625 -0.0500002 0.00109991
-0.05 -0.0500003 0.00109991
-0.0375 -0.0500003 0.0010999
-0.025 -0.0500003 0.0010999
-0.0125 -0.0500003 0.0010999
2.10607e-13 -0.0500003 0.0010999
0.0125 -0.0500003 0.0010999
0.025 -0.0500003 0.0010999
0.0375 -0.0500003 0.0010999
0.05 -0.0500003 0.0010999
0.0625 -0.0500003 0.0010999
0.075 -0.0500003 0.0010999
0.0875 -0.0500003 0.0010999
0.1 -0.0500003 0.00109989
0.1125 -0.0500003 0.00109989
0.125 -0.0500003 0.00109989
0.1375 -0.0500003 0.00109989
0.15 -0.0500003 0.00109989
0.1625 -0.0500003 0.00109989
0.175 -0.0500003 0.00109989
0.1875 -0.0500003 0.00109989
0.2 -0.0500003 0.00109989
0.2125 -0.0500003 0.00109989
0.225 -0.0500003 0.00109989
0.2375 -0.0500003 0.00109989
0.25 -0.0500003 0.00109989
0.2625 -0.0500003 0.00109988
0.275 -0.0500003 0.00109988
0.2875 -0.0500003 0.00109988
0.3 -0.0500003 0.00109988
0.3125 -0.0500003 0.00109988
0.325 -0.0500003 0.00109988
0.3375 -0.0500003 0.00109988
0.35 -0.0500003 0.00109988
0.3625 -0.0500003 0.00109988
0.375 -0.0500003 0.00109988
0.3875 -0.0500003 0.00109988
0.4 -0.0500004 0.00109988
0.4125 -0.0500004 0.00109988
0.425 -0.0500004 0.00109988
0.4375 -0.0500004 0.00109988
0.45 -0.0500004 0.00109988
0.4625 -0.0500004 0.00109988
0.475 -0.0500004 0.00109988
0.4875 -0.0500004 0.00109988
0.5 -0.0500004 0.00109988
0.5125 -0.0500004 0.00109988
0.525 -0.0500004 0.00109988
0.5375 -0.0500004 0.00109988
0.55 -0.0500004 0.00109988
0.5625 -0.0500004 0.00109988
0.575 -0.0500004 0.00109987
0.5875 -0.0500004 0.00109987
0.6 -0.0500004 0.00109987
0.6125 -0.0500004 0.00109987
0.625 -0.0500004 0.00109987
0.6375 -0.0500004 0.00109987
0.65 -0.0500004 0.00109987
0.6625 -0.0500004 0.00109987
0.675 -0.0500004 0.00109987
0.6875 -0.0500004 0.00109987
0.7 -0.0500004 0.00109987
0.7125 -0.0500004 0.00109987
0.725 -0.0500004 0.00109987
0.7375 -0.0500004 0.00109987
0.75 -0.0500004 0.00109987
0.7625 -0.0500004 0.00109987
0.775 -0.0500004 0.00109987
0.7875 -0.0500004 0.00109987
0.8 -0.0500004 0.00109987
0.8125 -0.0500004 0.00109987
0.825 -0.0500004 0.00109987
0.8375 -0.0500004 0.00109987
0.85 -0.0500004 0.00109987
0.8625 -0.0500004 0.00109987
0.875 -0.0500004 0.00109987
0.8875 -0.0500004 0.00109987
0.9 -0.0500004 0.00109987
0.9125 -0.0500005 0.00109988
0.925 -0.0500005 0.00109988
0.9375 -0.0500005 0.00109988
0.95 -0.0500005 0.00109988
0.9625 -0.0500005 0.00109988
0.975 -0.0500005 0.00109988
0.9875 -0.0500005 0.00109988
1 -0.0500005 0.00109988
1.0125 -0.0500005 0.00109988
1.025 -0.0500005 0.00109988
1.0375 -0.0500005 0.00109988
1.05 -0.0500005 0.00109988
1.0625 -0.0500005 0.00109988
1.075 -0.0500005 0.00109988
1.0875 -0.0500005 0.00109988
1.1 -0.0500005 0.00109988
1.1125 -0.0500005 0.00109988
1.125 -0.0500005 0.00109988
1.1375 -0.0500005 0.00109988
1.15 -0.0500005 0.00109988
1.1625 -0.0500005 0.00109988
1.175 -0.0500005 0.00109988
1.1875 -0.0500005 0.00109988
1.2 -0.0500005 0.00109988
1.2125 -0.0500005 0.00109988
1.225 -0.0500005 0.00109988
1.2375 -0.0500005 0.00109989
1.25 -0.0500005 0.00109989
1.2625 -0.0500005 0.00109989
1.275 -0.0500005 0.00109989
1.2875 -0.0500005 0.00109989
1.3 -0.0500005 0.00109989
1.3125 -0.0500005 0.00109989
1.325 -0.0500005 0.00109989
1.3375 -0.0500005 0.00109989
1.35 -0.0500005 0.00109989
1.3625 -0.0500005 0.00109989
1.375 -0.0500005 0.00109989
1.3875 -0.0500005 0.00109989
1.4 -0.0500005 0.00109989
1.4125 -0.0500005 0.00109989
1.425 -0.0500005 0.00109989
1.4375 -0.0500005 0.0010999
1.45 -0.0500005 0.0010999
1.4625 -0.0500005 0.0010999
1.475 -0.0500005 0.0010999
1.4875 -0.0500005 0.0010999
1.5 -0.0500006 0.0010999
1.5125 -0.0500006 0.0010999
1.525 -0.0500006 0.0010999
1.5375 -0.0500006 0.0010999
1.55 -0.0500006 0.0010999
1.5625 -0.0500006 0.0010999
1.575 -0.0500006 0.0010999
1.5875 -0.0500006 0.0010999
1.6 -0.0500006 0.0010999
1.6125 -0.0500006 0.00109991
1.625 -0.0500006 0.00109991
1.6375 -0.0500006 0.00109991
1.65 -0.0500006 0.00109991
1.6625 -0.0500006 0.00109991
1.675 -0.0500006 0.00109991
1.6875 -0.0500006 0.00109991
1.7 -0.0500006 0.00109991
1.7125 -0.0500006 0.00109991
1.725 -0.0500006 0.00109991
1.7375 -0.0500006 0.00109991
1.75 -0.0500006 0.00109991
1.7625 -0.0500006 0.00109992
1.775 -0.0500006 0.00109992
1.7875 -0.0500006 0.00109992
1.8 -0.0500006 0.00109992
1.8125 -0.0500006 0.00109992
1.825 -0.0500006 0.00109992
1.8375 -0.0500006 0.00109992
1.85 -0.0500006 0.00109992
1.8625 -0.0500006 0.00109992
1.875 -0.0500006 0.00109992
1.8875 -0.0500006 0.00109992
1.9 -0.0500006 0.00109992
1.9125 -0.0500006 0.00109993
1.925 -0.0500006 0.00109993
1.9375 -0.0500006 0.00109993
1.95 -0.0500006 0.00109993
1.9625 -0.0500006 0.00109993
1.975 -0.0500006 0.00109993
1.9875 -0.0500006 0.00109993
2 -0.0500006 0.00109993
2.0125 -0.0500006 0.00109993
2.025 -0.0500006 0.00109993
2.0375 -0.0500006 0.00109993
2.05 -0.0500006 0.00109993
2.0625 -0.0500006 0.00109994
2.075 -0.0500006 0.00109994
2.0875 -0.0500006 0.00109994
2.1 -0.0500006 0.00109994
2.1125 -0.0500006 0.00109994
2.125 -0.0500006 0.00109994
2.1375 -0.0500006 0.00109994
2.15 -0.0500006 0.00109994
2.1625 -0.0500006 0.00109994
2.175 -0.0500007 0.00109994
2.1875 -0.0500007 0.00109994
2.2 -0.0500007 0.00109994
2.2125 -0.0500007 0.00109994
2.225 -0.0500007 0.00109995
2.2375 -0.0500007 0.00109995
2.25 -0.0500007 0.00109995
2.2625 -0.0500007 0.00109995
2.275 -0.0500007 0.00109995
2.2875 -0.0500007 0.00109995
2.3 -0.0500007 0.00109995
2.3125 -0.0500007 0.00109995
2.325 -0.0500007 0.00109995
2.3375 -0.0500007 0.00109995
2.35 -0.0500007 0.00109995
2.3625 -0.0500007 0.00109995
2.375 -0.0500007 0.00109995
2.3875 -0.0500007 0.00109996
2.4 -0.0500007 0.00109996
2.4125 -0.0500007 0.00109996
2.425 -0.0500007 0.00109996
2.4375 -0.0500007 0.00109996
2.45 -0.0500007 0.00109996
2.4625 -0.0500007 0.00109996
2.475 -0.0500007 0.00109996
2.4875 -0.0500007 0.00109996
2.5 -0.0500007 0.00109996
2.5125 -0.0500007 0.00109996
2.525 -0.0500007 0.00109996
2.5375 -0.0500007 0.00109996
2.55 -0.0500007 0.00109996
2.5625 -0.0500007 0.00109997
2.575 -0.0500007 0.00109997
2.5875 -0.0500007 0.00109997
2.6 -0.0500007 0.00109997
2.6125 -0.0500007 0.00109997
2.625 -0.0500007 0.00109997
2.6375 -0.0500007 0.00109997
2.65 -0.0500007 0.00109997
2.6625 -0.0500007 0.00109997
2.675 -0.0500007 0.00109997
2.6875 -0.0500007 0.00109997
2.7 -0.0500007 0.00109997
2.7125 -0.0500007 0.00109997
2.725 -0.0500007 0.00109997
2.7375 -0.0500007 0.00109997
2.75 -0.0500007 0.00109997
2.7625 -0.0500007 0.00109998
2.775 -0.0500007 0.00109998
2.7875 -0.0500007 0.00109998
2.8 -0.0500007 0.00109998
2.8125 -0.0500007 0.00109998
2.825 -0.0500007 0.00109998
2.8375 -0.0500007 0.00109998
2.85 -0.0500007 0.00109998
2.8625 -0.0500008 0.00109998
2.875 -0.0500008 0.00109998
2.8875 -0.0500008 0.00109998
2.9 -0.0500008 0.00109998
2.9125 -0.0500008 0.00109998
2.925 -0.0500008 0.00109998
2.9375 -0.0500008 0.00109998
2.95 -0.0500008 0.00109998
2.9625 -0.0500008 0.00109998
2.975 -0.0500008 0.00109998
2.9875 -0.0500008 0.00109998
3 -0.0500008 0.00109998
3.0125 -0.0500008 0.00109999
3.025 -0.0500008 0.00109999
3.0375 -0.0500008 0.00109999
3.05 -0.0500008 0.00109999
3.0625 -0.0500008 0.00109999
3.075 -0.0500008 0.00109999
3.0875 -0.0500008 0.00109999
3.1 -0.0500008 0.00109999
3.1125 -0.0500008 0.00109999
3.125 -0.0500008 0.00109999
3.1375 -0.0500008 0.00109999
3.15 -0.0500008 0.00109999
3.1625 -0.0500008 0.00109999
3.175 -0.0500008 0.00109999
3.1875 -0.0500008 0.00109999
3.2 -0.0500008 0.00109999
3.2125 -0.0500008 0.00109999
3.225 -0.0500008 0.00109999
3.2375 -0.0500008 0.00109999
3.25 -0.0500008 0.00109999
3.2625 -0.0500008 0.00109999
3.275 -0.0500008 0.00109999
3.2875 -0.0500008 0.00109999
3.3 -0.0500008 0.00109999
3.3125 -0.0500008 0.00109999
3.325 -0.0500008 0.00109999
3.3375 -0.0500008 0.00109999
3.35 -0.0500008 0.0011
3.3625 -0.0500008 0.0011
[...]
POINT_DATA 15780
 FIELD attributes 1
U 3 15780 float
30.0002 	-7.01781e-06 	-6.30588e-06 30.0002 	-6.84333e-06 	-6.51455e-06 30.0002 	-6.66884e-06 	-6.72321e-06 30.0002 	-6.49436e-06 	-6.93188e-06 30.0002 	-6.31988e-06 	-7.14055e-06 30.0002 	-6.14539e-06 	-7.34922e-06 30.0004 	-1.23851e-05 	-1.26098e-06 30.0004 	-1.2385e-05 	-1.26098e-06 30.0004 	-1.2385e-05 	-1.26098e-06 30.0004 	-1.2385e-05 	-1.26098e-06 30.0002 	-7.04839e-08 	-6.84367e-06 30.0005 	-1.0709e-05 	-1.68703e-06 30.0005 	-1.0709e-05 	-1.68703e-06 30.0005 	-1.0709e-05 	-1.68703e-06 30.0005 	-1.0709e-05 	-1.68703e-06 30.0002 	-7.21756e-08 	-6.59608e-06 30.0005 	-9.95842e-06 	-2.08021e-06 30.0005 	-9.95841e-06 	-2.08021e-06 30.0005 	-9.9584e-06 	-2.08021e-06 30.0005 	-9.95839e-06 	-2.0802e-06 30.0003 	-4.59306e-06 	-6.24726e-06 30.0005 	-9.69167e-06 	-2.34894e-06 30.0005 	-9.69166e-06 	-2.34893e-06 30.0005 	-9.69165e-06 	-2.34893e-06 30.0005 	-9.69164e-06 	-2.34893e-06 30.0003 	-7.57979e-08 	-6.57616e-06 30.0005 	-9.52352e-06 	-2.49781e-06 30.0005 	-9.52351e-06 	-2.4978e-06 30.0005 	-9.52351e-06 	-2.4978e-06 30.0005 	-9.5235e-06 	-2.4978e-06 30.0003 	-7.75705e-08 	-6.52627e-06 30.0005 	-9.38717e-06 	-2.55605e-06 30.0005 	-9.38716e-06 	-2.55605e-06 30.0005 	-9.38715e-06 	-2.55604e-06 30.0005 	-9.38714e-06 	-2.55604e-06 30.0003 	-4.26692e-06 	-6.08528e-06 30.0005 	-9.27976e-06 	-2.55828e-06 30.0005 	-9.27975e-06 	-2.55828e-06 30.0005 	-9.27974e-06 	-2.55828e-06 30.0005 	-9.27973e-06 	-2.55827e-06 30.0003 	-4.19933e-06 	-5.97789e-06 30.0006 	-9.18761e-06 	-2.53042e-06 30.0006 	-9.1876e-06 	-2.53041e-06 30.0006 	-9.18759e-06 	-2.53041e-06 30.0006 	-9.18758e-06 	-2.53041e-06 30.0003 	-8.29064e-08 	-6.20126e-06 30.0006 	-9.09755e-06 	-2.48117e-06 30.0006 	-9.09754e-06 	-2.48117e-06 30.0006 	-9.09753e-06 	-2.48116e-06 30.0006 	-9.09753e-06 	-2.48116e-06 30.0003 	-8.46634e-08 	-6.05423e-06 30.0006 	-9.0051e-06 	-2.4136e-06 30.0006 	-9.00509e-06 	-2.4136e-06 30.0006 	-9.00508e-06 	-2.4136e-06 30.0006 	-9.00507e-06 	-2.41359e-06 30.0003 	-8.64181e-08 	-5.88782e-06 30.0006 	-8.90896e-06 	-2.32972e-06 30.0006 	-8.90895e-06 	-2.32972e-06 30.0006 	-8.90894e-06 	-2.32971e-06 30.0006 	-8.90893e-06 	-2.32971e-06 30.0003 	-3.93795e-06 	-5.36347e-06 30.0006 	-8.80892e-06 	-2.23274e-06 30.0006 	-8.80891e-06 	-2.23273e-06 30.0006 	-8.8089e-06 	-2.23273e-06 30.0006 	-8.80889e-06 	-2.23273e-06 30.0003 	-3.86416e-06 	-5.16475e-06 30.0006 	-8.70466e-06 	-2.12413e-06 30.0006 	-8.70465e-06 	-2.12413e-06 30.0006 	-8.70464e-06 	-2.12412e-06 30.0006 	-8.70464e-06 	-2.12412e-06 30.0003 	-9.16886e-08 	-5.28457e-06 30.0006 	-8.59646e-06 	-2.00507e-06 30.0006 	-8.59645e-06 	-2.00507e-06 30.0006 	-8.59645e-06 	-2.00507e-06 30.0006 	-8.59644e-06 	-2.00507e-06 30.0003 	-3.70455e-06 	-4.71939e-06 30.0007 	-8.48508e-06 	-1.87667e-06 30.0007 	-8.48508e-06 	-1.87667e-06 30.0007 	-8.48507e-06 	-1.87667e-06 30.0007 	-8.48506e-06 	-1.87667e-06 30.0003 	-3.61945e-06 	-4.4743e-06 30.0007 	-8.37174e-06 	-1.73883e-06 30.0007 	-8.37173e-06 	-1.73883e-06 30.0007 	-8.37173e-06 	-1.73882e-06 30.0007 	-8.37172e-06 	-1.73882e-06 30.0004 	-9.6898e-08 	-4.54318e-06 30.0007 	-8.26014e-06 	-1.59802e-06 30.0007 	-8.26013e-06 	-1.59802e-06 30.0007 	-8.26013e-06 	-1.59802e-06 30.0007 	-8.26012e-06 	-1.59802e-06 30.0004 	-9.86189e-08 	-4.27123e-06 30.0007 	-8.14811e-06 	-1.46322e-06 30.0007 	-8.14811e-06 	-1.46322e-06 30.0007 	-8.1481e-06 	-1.46322e-06 30.0007 	-8.1481e-06 	-1.46322e-06 30.0004 	-1.00335e-07 	-3.98926e-06 30.0007 	-8.02002e-06 	-1.32071e-06 30.0007 	-8.02001e-06 	-1.32071e-06 30.0007 	-8.02001e-06 	-1.32071e-06 30.0007 	-8.02e-06 	-1.32071e-06 30.0004 	-3.25102e-06 	-3.37794e-06 30.0007 	-7.8812e-06 	-1.168e-06 30.0007 	-7.88119e-06 	-1.168e-06 30.0007 	-7.88119e-06 	-1.168e-06 30.0007 	-7.88119e-06 	-1.16799e-06 30.0004 	-1.03731e-07 	-3.40287e-06 30.0007 	-7.74525e-06 	-1.00787e-06 30.0007 	-7.74525e-06 	-1.00787e-06 30.0007 	-7.74524e-06 	-1.00787e-06 30.0007 	-7.74524e-06 	-1.00786e-06 30.0004 	-1.05426e-07 	-3.10326e-06 30.0007 	-7.6111e-06 	-8.41851e-07 30.0007 	-7.61109e-06 	-8.4185e-07 30.0007 	-7.61109e-06 	-8.4185e-07 30.0007 	-7.61109e-06 	-8.4185e-07 30.0004 	-2.93181e-06 	-2.48788e-06 30.0007 	-7.47531e-06 	-6.70197e-07 30.0007 	-7.4753e-06 	-6.70197e-07 30.0007 	-7.4753e-06 	-6.70197e-07 30.0007 	-7.4753e-06 	-6.70197e-07 30.0004 	-2.82532e-06 	-2.18312e-06 30.0007 	-7.34314e-06 	-4.97041e-07 30.0007 	-7.34314e-06 	-4.97041e-07 30.0007 	-7.34314e-06 	-4.97041e-07 30.0007 	-7.34314e-06 	-4.97041e-07 30.0004 	-1.10469e-07 	-2.17109e-06 30.0007 	-7.21532e-06 	-3.17314e-07 30.0007 	-7.21532e-06 	-3.17314e-07 30.0007 	-7.21531e-06 	-3.17314e-07 30.0007 	-7.21531e-06 	-3.17314e-07 30.0004 	-1.12129e-07 	-1.85335e-06 30.0007 	-7.09855e-06 	-1.38208e-07 30.0007 	-7.09855e-06 	-1.38208e-07 30.0007 	-7.09855e-06 	-1.38208e-07 30.0007 	-7.09855e-06 	-1.38208e-07 30.0004 	-1.13776e-07 	-1.54901e-06 30.0007 	-6.98521e-06 	4.08573e-08 30.0007 	-6.98521e-06 	4.08573e-08 30.0007 	-6.98521e-06 	4.08573e-08 30.0007 	-6.98521e-06 	4.08573e-08 30.0004 	-2.43881e-06 	-9.58497e-07 30.0007 	-6.87159e-06 	2.14675e-07 30.0007 	-6.87159e-06 	2.14675e-07 30.0007 	-6.87159e-06 	2.14675e-07 30.0007 	-6.87159e-06 	2.14675e-07 30.0004 	-2.34719e-06 	-6.82295e-07 30.0007 	-6.75339e-06 	3.90726e-07 30.0007 	-6.75339e-06 	3.90727e-07 30.0007 	-6.75339e-06 	3.90727e-07 30.0007 	-6.75339e-06 	3.90727e-07 30.0004 	-1.18691e-07 	-7.09754e-07 30.0007 	-6.64284e-06 	5.64377e-07 30.0007 	-6.64284e-06 	5.64377e-07 30.0007 	-6.64284e-06 	5.64377e-07 30.0007 	-6.64285e-06 	5.64377e-07 30.0004 	-2.16681e-06 	-1.45435e-07 30.0007 	-6.53585e-06 	7.27403e-07 30.0007 	-6.53585e-06 	7.27403e-07 30.0007 	-6.53585e-06 	7.27403e-07 30.0007 	-6.53585e-06 	7.27404e-07 30.0004 	-2.08113e-06 	1.13844e-07 30.0007 	-6.43053e-06 	8.78845e-07 30.0007 	-6.43053e-06 	8.78846e-07 30.0007 	-6.43053e-06 	8.78846e-07 30.0007 	-6.43054e-06 	8.78846e-07 30.0004 	-1.23576e-07 	7.05974e-08 30.0007 	-6.32293e-06 	1.01779e-06 30.0007 	-6.32293e-06 	1.01779e-06 30.0007 	-6.32293e-06 	1.01779e-06 30.0007 	-6.32293e-06 	1.0178e-06 30.0004 	-1.2516e-07 	3.15827e-07 30.0007 	-6.21655e-06 	1.14062e-06 30.0007 	-6.21655e-06 	1.14062e-06 30.0007 	-6.21655e-06 	1.14062e-06 30.0007 	-6.21655e-06 	1.14062e-06 30.0004 	-1.26741e-07 	5.45544e-07 30.0007 	-6.11527e-06 	1.25632e-06 30.0007 	-6.11527e-06 	1.25632e-06 30.0007 	-6.11527e-06 	1.25632e-06 30.0007 	-6.11528e-06 	1.25632e-06 30.0004 	-1.7643e-06 	1.03209e-06 30.0007 	-6.02253e-06 	1.37128e-06 30.0007 	-6.02254e-06 	1.37128e-06 30.0007 	-6.02254e-06 	1.37128e-06 30.0007 	-6.02254e-06 	1.37128e-06 30.0004 	-1.29836e-07 	9.36961e-07 30.0007 	-5.94287e-06 	1.48851e-06 30.0007 	-5.94288e-06 	1.48851e-06 30.0007 	-5.94288e-06 	1.48851e-06 30.0007 	-5.94288e-06 	1.48851e-06 30.0004 	-1.31336e-07 	1.10458e-06 30.0007 	-5.87166e-06 	1.5929e-06 30.0007 	-5.87166e-06 	1.5929e-06 30.0007 	-5.87166e-06 	1.5929e-06 30.0007 	-5.87167e-06 	1.5929e-06 30.0004 	-1.59142e-06 	1.53878e-06 30.0007 	-5.80205e-06 	1.67932e-06 30.0007 	-5.80205e-06 	1.67932e-06 30.0007 	-5.80206e-06 	1.67933e-06 30.0007 	-5.80206e-06 	1.67933e-06 30.0003 	-1.54421e-06 	1.67823e-06 30.0007 	-5.73396e-06 	1.75012e-06 30.0007 	-5.73396e-06 	1.75012e-06 30.0007 	-5.73397e-06 	1.75012e-06 30.0007 	-5.73397e-06 	1.75012e-06 30.0003 	-1.36048e-07 	1.52475e-06 30.0006 	-5.66882e-06 	1.80982e-06 30.0006 	-5.66883e-06 	1.80982e-06 30.0006 	-5.66883e-06 	1.80982e-06 30.0006 	-5.66884e-06 	1.80982e-06 30.0003 	-1.37607e-07 	1.6323e-06 30.0006 	-5.60875e-06 	1.85995e-06 30.0006 	-5.60875e-06 	1.85995e-06 30.0006 	-5.60876e-06 	1.85995e-06 30.0006 	-5.60876e-06 	1.85995e-06 30.0003 	-1.39081e-07 	1.72402e-06 30.0006 	-5.55446e-06 	1.90044e-06 30.0006 	-5.55447e-06 	1.90044e-06 30.0006 	-5.55447e-06 	1.90044e-06 30.0006 	-5.55447e-06 	1.90045e-06 30.0003 	-1.3889e-06 	2.07106e-06 30.0006 	-5.50564e-06 	1.93111e-06 30.0006 	-5.50564e-06 	1.93111e-06 30.0006 	-5.50565e-06 	1.93111e-06 30.0006 	-5.50565e-06 	1.93111e-06 30.0003 	-1.36188e-06 	2.13099e-06 30.0006 	-5.4619e-06 	1.95185e-06 30.0006 	-5.4619e-06 	1.95185e-06 30.0006 	-5.46191e-06 	1.95185e-06 30.0006 	-5.46191e-06 	1.95185e-06 30.0003 	-1.43135e-07 	1.90829e-06 30.0006 	-5.42311e-06 	1.96279e-06 30.0006 	-5.42312e-06 	1.96279e-06 30.0006 	-5.42312e-06 	1.9628e-06 30.0006 	-5.42313e-06 	1.9628e-06 30.0003 	-1.3235e-06 	2.20769e-06 30.0006 	-5.38916e-06 	1.96433e-06 30.0006 	-5.38917e-06 	1.96433e-06 30.0006 	-5.38917e-06 	1.96433e-06 30.0006 	-5.38918e-06 	1.96433e-06 30.0003 	-1.31173e-06 	2.22557e-06 30.0006 	-5.36e-06 	1.95693e-06 30.0006 	-5.36001e-06 	1.95693e-06 30.0006 	-5.36001e-06 	1.95693e-06 30.0006 	-5.36001e-06 	1.95693e-06 30.0003 	-1.47042e-07 	1.9662e-06 30.0005 	-5.33554e-06 	1.94113e-06 30.0005 	-5.33555e-06 	1.94114e-06 30.0005 	-5.33555e-06 	1.94114e-06 30.0005 	-5.33556e-06 	1.94114e-06 30.0003 	-1.48309e-07 	1.9606e-06 30.0005 	-5.31556e-06 	1.91794e-06 30.0005 	-5.31556e-06 	1.91795e-06 30.0005 	-5.31556e-06 	1.91795e-06 30.0005 	-5.31557e-06 	1.91795e-06 30.0003 	-1.49527e-07 	1.94427e-06 30.0005 	-5.29996e-06 	1.88802e-06 30.0005 	-5.29997e-06 	1.88802e-06 30.0005 	-5.29997e-06 	1.88802e-06 30.0005 	-5.29998e-06 	1.88802e-06 30.0003 	-1.3092e-06 	2.17904e-06 30.0005 	-5.28863e-06 	1.85192e-06 30.0005 	-5.28864e-06 	1.85192e-06 30.0005 	-5.28864e-06 	1.85192e-06 30.0005 	-5.28864e-06 	1.85192e-06 30.0003 	-1.51884e-07 	1.88233e-06 30.0005 	-5.28137e-06 	1.8101e-06 30.0005 	-5.28137e-06 	1.8101e-06 30.0005 	-5.28138e-06 	1.8101e-06 30.0005 	-5.28138e-06 	1.8101e-06 30.0003 	-1.53012e-07 	1.83821e-06 30.0005 	-5.27794e-06 	1.76318e-06 30.0005 	-5.27794e-06 	1.76318e-06 30.0005 	-5.27794e-06 	1.76318e-06 30.0005 	-5.27795e-06 	1.76318e-06 30.0003 	-1.34843e-06 	2.04412e-06 30.0005 	-5.27812e-06 	1.71165e-06 30.0005 	-5.27813e-06 	1.71165e-06 30.0005 	-5.27813e-06 	1.71165e-06 30.0005 	-5.27813e-06 	1.71165e-06 30.0003 	-1.3685e-06 	1.98428e-06 30.0005 	-5.28169e-06 	1.65602e-06 30.0005 	-5.28169e-06 	1.65602e-06 30.0005 	-5.2817e-06 	1.65602e-06 30.0005 	-5.2817e-06 	1.65602e-06 30.0002 	-1.56245e-07 	1.66285e-06 30.0005 	-5.2885e-06 	1.59671e-06 30.0005 	-5.2885e-06 	1.59671e-06 30.0005 	-5.2885e-06 	1.59671e-06 30.0005 	-5.28851e-06 	1.59671e-06 30.0002 	-1.57304e-07 	1.5926e-06 30.0004 	-5.29845e-06 	1.53418e-06 30.0004 	-5.29846e-06 	1.53418e-06 30.0004 	-5.29846e-06 	1.53419e-06 30.0004 	-5.29846e-06 	1.53419e-06 30.0002 	-1.58384e-07 	1.51774e-06 30.0004 	-5.31141e-06 	1.46892e-06 30.0004 	-5.31141e-06 	1.46892e-06 30.0004 	-5.31142e-06 	1.46892e-06 30.0004 	-5.31142e-06 	1.46893e-06 30.0002 	-1.48018e-06 	1.69067e-06 30.0004 	-5.32697e-06 	1.40147e-06 30.0004 	-5.32697e-06 	1.40148e-06 30.0004 	-5.32698e-06 	1.40148e-06 30.0004 	-5.32698e-06 	1.40148e-06 30.0002 	-1.51471e-06 	1.60718e-06 30.0004 	-5.34487e-06 	1.33223e-06 30.0004 	-5.34487e-06 	1.33223e-06 30.0004 	-5.34487e-06 	1.33223e-06 30.0004 	-5.34488e-06 	1.33223e-06 30.0002 	-1.61651e-07 	1.27191e-06 30.0004 	-5.36489e-06 	1.26151e-06 30.0004 	-5.36489e-06 	1.26151e-06 30.0004 	-5.3649e-06 	1.26152e-06 30.0004 	-5.3649e-06 	1.26152e-06 30.0002 	-1.59005e-06 	1.43254e-06 30.0004 	-5.38672e-06 	1.18985e-06 30.0004 	-5.38673e-06 	1.18985e-06 30.0004 	-5.38673e-06 	1.18985e-06 30.0004 	-5.38673e-06 	1.18985e-06 30.0002 	-1.63053e-06 	1.34247e-06 30.0004 	-5.41036e-06 	1.11752e-06 30.0004 	-5.41037e-06 	1.11752e-06 30.0004 	-5.41037e-06 	1.11752e-06 30.0004 	-5.41037e-06 	1.11752e-06 30.0002 	-1.64683e-07 	1.00614e-06 30.0004 	-5.43549e-06 	1.04485e-06 30.0004 	-5.43549e-06 	1.04485e-06 30.0004 	-5.43549e-06 	1.04485e-06 30.0004 	-5.43549e-06 	1.04485e-06 30.0002 	-1.6563e-07 	9.15665e-07 30.0004 	-5.46116e-06 	9.72307e-07 30.0004 	-5.46116e-06 	9.72307e-07 30.0004 	-5.46116e-06 	9.72307e-07 30.0004 	-5.46117e-06 	9.72308e-07 30.0002 	-1.66537e-07 	8.25043e-07 30.0004 	-5.48722e-06 	8.99529e-07 30.0004 	-5.48722e-06 	8.99529e-07 30.0004 	-5.48723e-06 	8.99529e-07 30.0004 	-5.48723e-06 	8.9953e-07 30.0002 	-1.80745e-06 	9.7547e-07 30.0004 	-5.51403e-06 	8.25996e-07 30.0004 	-5.51403e-06 	8.25997e-07 30.0004 	-5.51403e-06 	8.25997e-07 30.0004 	-5.51403e-06 	8.25997e-07 30.0002 	-1.68254e-07 	6.43677e-07 30.0003 	-5.54379e-06 	7.52037e-07 30.0003 	-5.54379e-06 	7.52037e-07 30.0003 	-5.54379e-06 	7.52037e-07 30.0003 	-5.54379e-06 	7.52038e-07 30.0002 	-1.69077e-07 	5.52684e-07 30.0003 	-5.57828e-06 	6.77493e-07 30.0003 	-5.57828e-06 	6.77493e-07 30.0003 	-5.57828e-06 	6.77494e-07 30.0003 	-5.57828e-06 	6.77494e-07 30.0002 	-1.95583e-06 	7.01364e-07 30.0003 	-5.61515e-06 	6.0443e-07 30.0003 	-5.61515e-06 	6.0443e-07 30.0003 	-5.61515e-06 	6.0443e-07 30.0003 	-5.61516e-06 	6.0443e-07 30.0002 	-2.00802e-06 	6.11733e-07 30.0003 	-5.65122e-06 	5.3471e-07 30.0003 	-5.65122e-06 	5.3471e-07 30.0003 	-5.65122e-06 	5.3471e-07 30.0003 	-5.65122e-06 	5.34711e-07 30.0002 	-1.71572e-07 	2.80989e-07 30.0003 	-5.68234e-06 	4.67686e-07 30.0003 	-5.68234e-06 	4.67686e-07 30.0003 	-5.68234e-06 	4.67686e-07 30.0003 	-5.68234e-06 	4.67686e-07 30.0002 	-1.72401e-07 	1.97374e-07 30.0003 	-5.71076e-06 	4.03242e-07 30.0003 	-5.71076e-06 	4.03242e-07 30.0003 	-5.71077e-06 	4.03242e-07 30.0003 	-5.71077e-06 	4.03242e-07 30.0002 	-1.73201e-07 	1.16443e-07 30.0003 	-5.73894e-06 	3.3928e-07 30.0003 	-5.73894e-06 	3.3928e-07 30.0003 	-5.73894e-06 	3.3928e-07 30.0003 	-5.73894e-06 	3.3928e-07 30.0002 	-2.20128e-06 	2.74131e-07 30.0003 	-5.76692e-06 	2.75317e-07 30.0003 	-5.76692e-06 	2.75317e-07 30.0003 	-5.76692e-06 	2.75317e-07 30.0003 	-5.76692e-06 	2.75317e-07 30.0002 	-2.24821e-06 	1.96387e-07 30.0003 	-5.79364e-06 	2.10828e-07 30.0003 	-5.79364e-06 	2.10828e-07 30.0003 	-5.79364e-06 	2.10828e-07 30.0003 	-5.79364e-06 	2.10828e-07 30.0002 	-1.75359e-07 	-1.09107e-07 30.0003 	-5.82163e-06 	1.48815e-07 30.0003 	-5.82163e-06 	1.48815e-07 30.0003 	-5.82163e-06 	1.48815e-07 30.0003 	-5.82163e-06 	1.48815e-07 30.0002 	-2.34197e-06 	4.46997e-08 30.0003 	-5.85089e-06 	9.00205e-08 30.0003 	-5.85089e-06 	9.00205e-08 30.0003 	-5.85089e-06 	9.00205e-08 30.0003 	-5.85089e-06 	9.00206e-08 30.0002 	-2.38928e-06 	-2.90743e-08 30.0003 	-5.88131e-06 	3.48509e-08 30.0003 	-5.88132e-06 	3.48509e-08 30.0003 	-5.88132e-06 	3.48509e-08 30.0003 	-5.88132e-06 	3.48509e-08 30.0002 	-1.7735e-07 	-3.30735e-07 30.0003 	-5.91301e-06 	-1.70374e-08 30.0003 	-5.91301e-06 	-1.70374e-08 30.0003 	-5.91301e-06 	-1.70374e-08 30.0003 	-5.91301e-06 	-1.70374e-08 30.0002 	-1.77969e-07 	-4.01773e-07 30.0003 	-5.94614e-06 	-6.90175e-08 30.0003 	-5.94614e-06 	-6.90175e-08 30.0003 	-5.94614e-06 	-6.90175e-08 30.0003 	-5.94614e-06 	-6.90175e-08 30.0002 	-1.78576e-07 	-4.67047e-07 30.0003 	-5.97811e-06 	-1.23278e-07 30.0003 	-5.97811e-06 	-1.23278e-07 30.0003 	-5.97811e-06 	-1.23278e-07 30.0003 	-5.97811e-06 	-1.23278e-07 30.0002 	-2.58079e-06 	-3.01354e-07 30.0003 	-6.0059e-06 	-1.77922e-07 30.0003 	-6.0059e-06 	-1.77922e-07 30.0003 	-6.0059e-06 	-1.77922e-07 30.0003 	-6.0059e-06 	-1.77922e-07 30.0002 	-1.79767e-07 	-5.84861e-07 30.0003 	-6.03003e-06 	-2.29181e-07 30.0003 	-6.03003e-06 	-2.29181e-07 30.0003 	-6.03003e-06 	-2.29181e-07 30.0003 	-6.03003e-06 	-2.29181e-07 30.0002 	-1.80357e-07 	-6.42125e-07 30.0003 	-6.05328e-06 	-2.76145e-07 30.0003 	-6.05328e-06 	-2.76145e-07 30.0003 	-6.05328e-06 	-2.76145e-07 30.0003 	-6.05328e-06 	-2.76145e-07 30.0002 	-2.70887e-06 	-4.78957e-07 30.0003 	-6.07714e-06 	-3.19622e-07 30.0003 	-6.07714e-06 	-3.19622e-07 30.0003 	-6.07714e-06 	-3.19622e-07 30.0003 	-6.07714e-06 	-3.19622e-07 30.0002 	-2.7499e-06 	-5.34001e-07 30.0003 	-6.10135e-06 	-3.61159e-07 30.0003 	-6.10135e-06 	-3.61158e-07 30.0003 	-6.10135e-06 	-3.61158e-07 30.0003 	-6.10135e-06 	-3.61158e-07 30.0002 	-1.82098e-07 	-8.03765e-07 30.0003 	-6.12539e-06 	-4.01355e-07 30.0003 	-6.12539e-06 	-4.01355e-07 30.0003 	-6.12539e-06 	-4.01355e-07 30.0003 	-6.12539e-06 	-4.01355e-07 30.0001 	-1.82648e-07 	-8.53085e-07 30.0003 	-6.1488e-06 	-4.40349e-07 30.0003 	-6.1488e-06 	-4.40349e-07 30.0003 	-6.1488e-06 	-4.40349e-07 30.0003 	-6.1488e-06 	-4.40349e-07 30.0001 	-1.83188e-07 	-9.00295e-07 30.0003 	-6.17146e-06 	-4.77966e-07 30.0003 	-6.17146e-06 	-4.77966e-07 30.0003 	-6.17146e-06 	-4.77966e-07 30.0003 	-6.17146e-06 	-4.77966e-07 30.0001 	-2.90939e-06 	-7.31433e-07 30.0003 	-6.19327e-06 	-5.1418e-07 30.0003 	-6.19326e-06 	-5.1418e-07 30.0003 	-6.19326e-06 	-5.1418e-07 30.0003 	-6.19326e-06 	-5.1418e-07 30.0001 	-2.94727e-06 	-7.75561e-07 30.0003 	-6.21416e-06 	-5.48805e-07 30.0003 	-6.21416e-06 	-5.48805e-07 30.0003 	-6.21416e-06 	-5.48805e-07 30.0003 	-6.21416e-06 	-5.48805e-07 30.0001 	-1.8471e-07 	-1.02951e-06 30.0003 	-6.23425e-06 	-5.82023e-07 30.0003 	-6.23425e-06 	-5.82023e-07 30.0003 	-6.23425e-06 	-5.82023e-07 30.0003 	-6.23425e-06 	-5.82023e-07 30.0001 	-3.02026e-06 	-8.5745e-07 30.0003 	-6.25353e-06 	-6.13863e-07 30.0003 	-6.25353e-06 	-6.13862e-07 30.0003 	-6.25353e-06 	-6.13862e-07 30.0003 	-6.25353e-06 	-6.13862e-07 30.0001 	-3.05536e-06 	-8.95458e-07 30.0003 	-6.27203e-06 	-6.44387e-07 30.0003 	-6.27203e-06 	-6.44386e-07 30.0003 	-6.27202e-06 	-6.44386e-07 30.0003 	-6.27202e-06 	-6.44386e-07 30.0001 	-1.86136e-07 	-1.14083e-06 30.0003 	-6.28973e-06 	-6.73586e-07 30.0003 	-6.28973e-06 	-6.73586e-07 30.0003 	-6.28972e-06 	-6.73586e-07 30.0003 	-6.28972e-06 	-6.73586e-07 30.0001 	-1.86583e-07 	-1.17458e-06 30.0003 	-6.30676e-06 	-7.01404e-07 30.0003 	-6.30675e-06 	-7.01404e-07 30.0003 	-6.30675e-06 	-7.01403e-07 30.0003 	-6.30675e-06 	-7.01403e-07 30.0001 	-1.87036e-07 	-1.20667e-06 30.0003 	-6.32285e-06 	-7.27832e-07 30.0003 	-6.32285e-06 	-7.27832e-07 30.0003 	-6.32285e-06 	-7.27832e-07 30.0003 	-6.32285e-06 	-7.27831e-07 30.0001 	-3.18681e-06 	-1.03098e-06 30.0003 	-6.33813e-06 	-7.52944e-07 30.0003 	-6.33813e-06 	-7.52944e-07 30.0003 	-6.33812e-06 	-7.52944e-07 30.0003 	-6.33812e-06 	-7.52943e-07 30.0001 	-1.87909e-07 	-1.26595e-06 30.0003 	-6.35265e-06 	-7.76913e-07 30.0003 	-6.35264e-06 	-7.76912e-07 30.0003 	-6.35264e-06 	-7.76912e-07 30.0003 	-6.35264e-06 	-7.76912e-07 30.0001 	-1.88319e-07 	-1.29331e-06 30.0003 	-6.36646e-06 	-7.99783e-07 30.0003 	-6.36646e-06 	-7.99782e-07 30.0003 	-6.36646e-06 	-7.99782e-07 30.0003 	-6.36646e-06 	-7.99782e-07 30.0001 	-3.27622e-06 	-1.11603e-06 30.0003 	-6.37955e-06 	-8.21508e-07 30.0003 	-6.37955e-06 	-8.21508e-07 30.0003 	-6.37955e-06 	-8.21508e-07 30.0003 	-6.37955e-06 	-8.21508e-07 30.0001 	-3.30433e-06 	-1.14151e-06 30.0003 	-6.39184e-06 	-8.41947e-07 30.0003 	-6.39183e-06 	-8.41947e-07 30.0003 	-6.39183e-06 	-8.41946e-07 30.0003 	-6.39183e-06 	-8.41946e-07 30.0001 	-1.89519e-07 	-1.36685e-06 30.0003 	-6.40347e-06 	-8.61338e-07 30.0003 	-6.40347e-06 	-8.61338e-07 30.0003 	-6.40346e-06 	-8.61337e-07 30.0003 	-6.40346e-06 	-8.61337e-07 30.0001 	-1.89904e-07 	-1.38873e-06 30.0003 	-6.41442e-06 	-8.79776e-07 30.0003 	-6.41442e-06 	-8.79775e-07 30.0003 	-6.41441e-06 	-8.79775e-07 30.0003 	-6.41441e-06 	-8.79775e-07 30.0001 	-1.90285e-07 	-1.40938e-06 30.0003 	-6.42467e-06 	-8.97257e-07 30.0003 	-6.42467e-06 	-8.97257e-07 30.0003 	-6.42466e-06 	-8.97257e-07 30.0003 	-6.42466e-06 	-8.97256e-07 30.0001 	-3.40864e-06 	-1.2305e-06 30.0003 	-6.43425e-06 	-9.13842e-07 30.0003 	-6.43425e-06 	-9.13842e-07 30.0003 	-6.43425e-06 	-9.13841e-07 30.0003 	-6.43424e-06 	-9.13841e-07 30.0001 	-3.43277e-06 	-1.24983e-06 30.0003 	-6.44312e-06 	-9.2953e-07 30.0003 	-6.44312e-06 	-9.2953e-07 30.0003 	-6.44312e-06 	-9.29529e-07 30.0003 	-6.44311e-06 	-9.29529e-07 30.0001 	-1.91364e-07 	-1.46455e-06 30.0003 	-6.45139e-06 	-9.44385e-07 30.0003 	-6.45138e-06 	-9.44385e-07 30.0003 	-6.45138e-06 	-9.44384e-07 30.0003 	-6.45138e-06 	-9.44384e-07 30.0001 	-3.47884e-06 	-1.28532e-06 30.0003 	-6.45906e-06 	-9.58388e-07 30.0003 	-6.45906e-06 	-9.58388e-07 30.0003 	-6.45906e-06 	-9.58387e-07 30.0003 	-6.45906e-06 	-9.58387e-07 30.0001 	-3.50088e-06 	-1.30159e-06 30.0003 	-6.46615e-06 	-9.71681e-07 30.0003 	-6.46614e-06 	-9.71681e-07 30.0003 	-6.46614e-06 	-9.7168e-07 30.0003 	-6.4