# vtk DataFile Version 2.0
track0
ASCII
DATASET POLYDATA
POINTS 15780 float
-1.001 -0.05 0.0011
-1.0008 -0.05 0.0011
-1.0006 -0.05 0.0011
-1.0004 -0.05 0.0011
-1.0002 -0.05 0.0011
-1 -0.05 0.0011
-0.9875 -0.05 0.0011
-0.975 -0.05 0.0011
-0.9625 -0.05 0.0011
-0.95 -0.05 0.0011
-0.9375 -0.05 0.00109999
-0.925 -0.05 0.00109999
-0.9125 -0.05 0.00109999
-0.9 -0.05 0.00109999
-0.8875 -0.05 0.00109999
-0.875 -0.05 0.00109999
-0.8625 -0.05 0.00109999
-0.85 -0.05 0.00109999
-0.8375 -0.05 0.00109998
-0.825 -0.0500001 0.00109998
-0.8125 -0.0500001 0.00109998
-0.8 -0.0500001 0.00109998
-0.7875 -0.0500001 0.00109998
-0.775 -0.0500001 0.00109998
-0.7625 -0.0500001 0.00109998
-0.75 -0.0500001 0.00109998
-0.7375 -0.0500001 0.00109997
-0.725 -0.0500001 0.00109997
-0.7125 -0.0500001 0.00109997
-0.7 -0.0500001 0.00109997
-0.6875 -0.0500001 0.00109997
-0.675 -0.0500001 0.00109997
-0.6625 -0.0500001 0.00109997
-0.65 -0.0500001 0.00109996
-0.6375 -0.0500001 0.00109996
-0.625 -0.0500001 0.00109996
-0.6125 -0.0500001 0.00109996
-0.6 -0.0500001 0.00109996
-0.5875 -0.0500001 0.00109996
-0.575 -0.0500001 0.00109996
-0.5625 -0.0500001 0.00109996
-0.55 -0.0500001 0.00109995
-0.5375 -0.0500001 0.00109995
-0.525 -0.0500001 0.00109995
-0.5125 -0.0500001 0.00109995
-0.5 -0.0500001 0.00109995
-0.4875 -0.0500001 0.00109995
-0.475 -0.0500001 0.00109995
-0.4625 -0.0500001 0.00109994
-0.45 -0.0500002 0.00109994
-0.4375 -0.0500002 0.00109994
-0.425 -0.0500002 0.00109994
-0.4125 -0.0500002 0.00109994
-0.4 -0.0500002 0.00109994
-0.3875 -0.0500002 0.00109994
-0.375 -0.0500002 0.00109994
-0.3625 -0.0500002 0.00109993
-0.35 -0.0500002 0.00109993
-0.3375 -0.0500002 0.00109993
-0.325 -0.0500002 0.00109993
-0.3125 -0.0500002 0.00109993
-0.3 -0.0500002 0.00109993
-0.2875 -0.0500002 0.00109993
-0.275 -0.0500002 0.00109993
-0.2625 -0.0500002 0.00109992
-0.25 -0.0500002 0.00109992
-0.2375 -0.0500002 0.00109992
-0.225 -0.0500002 0.00109992
-0.2125 -0.0500002 0.00109992
-0.2 -0.0500002 0.00109992
-0.1875 -0.0500002 0.00109992
-0.175 -0.0500002 0.00109992
-0.1625 -0.0500002 0.00109991
-0.15 -0.0500002 0.00109991
-0.1375 -0.0500002 0.00109991
-0.125 -0.0500002 0.00109991
-0.1125 -0.0500002 0.00109991
-0.1 -0.0500002 0.00109991
-0.0875 -0.0500002 0.00109991
-0.075 -0.0500002 0.00109991
-0.0625 -0.0500002 0.00109991
-0.05 -0.0500003 0.00109991
-0.0375 -0.0500003 0.0010999
-0.025 -0.0500003 0.0010999
-0.0125 -0.0500003 0.0010999
2.10607e-13 -0.0500003 0.0010999
0.0125 -0.0500003 0.0010999
0.025 -0.0500003 0.0010999
0.0375 -0.0500003 0.0010999
0.05 -0.0500003 0.0010999
0.0625 -0.0500003 0.0010999
0.075 -0.0500003 0.0010999
0.0875 -0.0500003 0.0010999
0.1 -0.0500003 0.00109989
0.1125 -0.0500003 0.00109989
0.125 -0.0500003 0.00109989
0.1375 -0.0500003 0.00109989
0.15 -0.0500003 0.00109989
0.1625 -0.0500003 0.00109989
0.175 -0.0500003 0.00109989
0.1875 -0.0500003 0.00109989
0.2 -0.0500003 0.00109989
0.2125 -0.0500003 0.00109989
0.225 -0.0500003 0.00109989
0.2375 -0.0500003 0.00109989
0.25 -0.0500003 0.00109989
0.2625 -0.0500003 0.00109988
0.275 -0.0500003 0.00109988
0.2875 -0.0500003 0.00109988
0.3 -0.0500003 0.00109988
0.3125 -0.0500003 0.00109988
0.325 -0.0500003 0.00109988
0.3375 -0.0500003 0.00109988
0.35 -0.0500003 0.00109988
0.3625 -0.0500003 0.00109988
0.375 -0.0500003 0.00109988
0.3875 -0.0500003 0.00109988
0.4 -0.0500004 0.00109988
0.4125 -0.0500004 0.00109988
0.425 -0.0500004 0.00109988
0.4375 -0.0500004 0.00109988
0.45 -0.0500004 0.00109988
0.4625 -0.0500004 0.00109988
0.475 -0.0500004 0.00109988
0.4875 -0.0500004 0.00109988
0.5 -0.0500004 0.00109988
0.5125 -0.0500004 0.00109988
0.525 -0.0500004 0.00109988
0.5375 -0.0500004 0.00109988
0.55 -0.0500004 0.00109988
0.5625 -0.0500004 0.00109988
0.575 -0.0500004 0.00109987
0.5875 -0.0500004 0.00109987
0.6 -0.0500004 0.00109987
0.6125 -0.0500004 0.00109987
0.625 -0.0500004 0.00109987
0.6375 -0.0500004 0.00109987
0.65 -0.0500004 0.00109987
0.6625 -0.0500004 0.00109987
0.675 -0.0500004 0.00109987
0.6875 -0.0500004 0.00109987
0.7 -0.0500004 0.00109987
0.7125 -0.0500004 0.00109987
0.725 -0.0500004 0.00109987
0.7375 -0.0500004 0.00109987
0.75 -0.0500004 0.00109987
0.7625 -0.0500004 0.00109987
0.775 -0.0500004 0.00109987
0.7875 -0.0500004 0.00109987
0.8 -0.0500004 0.00109987
0.8125 -0.0500004 0.00109987
0.825 -0.0500004 0.00109987
0.8375 -0.0500004 0.00109987
0.85 -0.0500004 0.00109987
0.8625 -0.0500004 0.00109987
0.875 -0.0500004 0.00109987
0.8875 -0.0500004 0.00109987
0.9 -0.0500004 0.00109987
0.9125 -0.0500005 0.00109988
0.925 -0.0500005 0.00109988
0.9375 -0.0500005 0.00109988
0.95 -0.0500005 0.00109988
0.9625 -0.0500005 0.00109988
0.975 -0.0500005 0.00109988
0.9875 -0.0500005 0.00109988
1 -0.0500005 0.00109988
1.0125 -0.0500005 0.00109988
1.025 -0.0500005 0.00109988
1.0375 -0.0500005 0.00109988
1.05 -0.0500005 0.00109988
1.0625 -0.0500005 0.00109988
1.075 -0.0500005 0.00109988
1.0875 -0.0500005 0.00109988
1.1 -0.0500005 0.00109988
1.1125 -0.0500005 0.00109988
1.125 -0.0500005 0.00109988
1.1375 -0.0500005 0.00109988
1.15 -0.0500005 0.00109988
1.1625 -0.0500005 0.00109988
1.175 -0.0500005 0.00109988
1.1875 -0.0500005 0.00109988
1.2 -0.0500005 0.00109988
1.2125 -0.0500005 0.00109988
1.225 -0.0500005 0.00109988
1.2375 -0.0500005 0.00109989
1.25 -0.0500005 0.00109989
1.2625 -0.0500005 0.00109989
1.275 -0.0500005 0.00109989
1.2875 -0.0500005 0.00109989
1.3 -0.0500005 0.00109989
1.3125 -0.0500005 0.00109989
1.325 -0.0500005 0.00109989
1.3375 -0.0500005 0.00109989
1.35 -0.0500005 0.00109989
1.3625 -0.0500005 0.00109989
1.375 -0.0500005 0.00109989
1.3875 -0.0500005 0.00109989
1.4 -0.0500005 0.00109989
1.4125 -0.0500005 0.00109989
1.425 -0.0500005 0.00109989
1.4375 -0.0500005 0.0010999
1.45 -0.0500005 0.0010999
1.4625 -0.0500005 0.0010999
1.475 -0.0500005 0.0010999
1.4875 -0.0500005 0.0010999
1.5 -0.0500006 0.0010999
1.5125 -0.0500006 0.0010999
1.525 -0.0500006 0.0010999
1.5375 -0.0500006 0.0010999
1.55 -0.0500006 0.0010999
1.5625 -0.0500006 0.0010999
1.575 -0.0500006 0.0010999
1.5875 -0.0500006 0.0010999
1.6 -0.0500006 0.0010999
1.6125 -0.0500006 0.00109991
1.625 -0.0500006 0.00109991
1.6375 -0.0500006 0.00109991
1.65 -0.0500006 0.00109991
1.6625 -0.0500006 0.00109991
1.675 -0.0500006 0.00109991
1.6875 -0.0500006 0.00109991
1.7 -0.0500006 0.00109991
1.7125 -0.0500006 0.00109991
1.725 -0.0500006 0.00109991
1.7375 -0.0500006 0.00109991
1.75 -0.0500006 0.00109991
1.7625 -0.0500006 0.00109992
1.775 -0.0500006 0.00109992
1.7875 -0.0500006 0.00109992
1.8 -0.0500006 0.00109992
1.8125 -0.0500006 0.00109992
1.825 -0.0500006 0.00109992
1.8375 -0.0500006 0.00109992
1.85 -0.0500006 0.00109992
1.8625 -0.0500006 0.00109992
1.875 -0.0500006 0.00109992
1.8875 -0.0500006 0.00109992
1.9 -0.0500006 0.00109992
1.9125 -0.0500006 0.00109993
1.925 -0.0500006 0.00109993
1.9375 -0.0500006 0.00109993
1.95 -0.0500006 0.00109993
1.9625 -0.0500006 0.00109993
1.975 -0.0500006 0.00109993
1.9875 -0.0500006 0.00109993
2 -0.0500006 0.00109993
2.0125 -0.0500006 0.00109993
2.025 -0.0500006 0.00109993
2.0375 -0.0500006 0.00109993
2.05 -0.0500006 0.00109993
2.0625 -0.0500006 0.00109994
2.075 -0.0500006 0.00109994
2.0875 -0.0500006 0.00109994
2.1 -0.0500006 0.00109994
2.1125 -0.0500006 0.00109994
2.125 -0.0500006 0.00109994
2.1375 -0.0500006 0.00109994
2.15 -0.0500006 0.00109994
2.1625 -0.0500006 0.00109994
2.175 -0.0500007 0.00109994
2.1875 -0.0500007 0.00109994
2.2 -0.0500007 0.00109994
2.2125 -0.0500007 0.00109994
2.225 -0.0500007 0.00109995
2.2375 -0.0500007 0.00109995
2.25 -0.0500007 0.00109995
2.2625 -0.0500007 0.00109995
2.275 -0.0500007 0.00109995
2.2875 -0.0500007 0.00109995
2.3 -0.0500007 0.00109995
2.3125 -0.0500007 0.00109995
2.325 -0.0500007 0.00109995
2.3375 -0.0500007 0.00109995
2.35 -0.0500007 0.00109995
2.3625 -0.0500007 0.00109995
2.375 -0.0500007 0.00109995
2.3875 -0.0500007 0.00109996
2.4 -0.0500007 0.00109996
2.4125 -0.0500007 0.00109996
2.425 -0.0500007 0.00109996
2.4375 -0.0500007 0.00109996
2.45 -0.0500007 0.00109996
2.4625 -0.0500007 0.00109996
2.475 -0.0500007 0.00109996
2.4875 -0.0500007 0.00109996
2.5 -0.0500007 0.00109996
2.5125 -0.0500007 0.00109996
2.525 -0.0500007 0.00109996
2.5375 -0.0500007 0.00109996
2.55 -0.0500007 0.00109996
2.5625 -0.0500007 0.00109997
2.575 -0.0500007 0.00109997
2.5875 -0.0500007 0.00109997
2.6 -0.0500007 0.00109997
2.6125 -0.0500007 0.00109997
2.625 -0.0500007 0.00109997
2.6375 -0.0500007 0.00109997
2.65 -0.0500007 0.00109997
2.6625 -0.0500007 0.00109997
2.675 -0.0500007 0.00109997
2.6875 -0.0500007 0.00109997
2.7 -0.0500007 0.00109997
2.7125 -0.0500007 0.00109997
2.725 -0.0500007 0.00109997
2.7375 -0.0500007 0.00109997
2.75 -0.0500007 0.00109997
2.7625 -0.0500007 0.00109998
2.775 -0.0500007 0.00109998
2.7875 -0.0500007 0.00109998
2.8 -0.0500007 0.00109998
2.8125 -0.0500007 0.00109998
2.825 -0.0500007 0.00109998
2.8375 -0.0500007 0.00109998
2.85 -0.0500007 0.00109998
2.8625 -0.0500008 0.00109998
2.875 -0.0500008 0.00109998
2.8875 -0.0500008 0.00109998
2.9 -0.0500008 0.00109998
2.9125 -0.0500008 0.00109998
2.925 -0.0500008 0.00109998
2.9375 -0.0500008 0.00109998
2.95 -0.0500008 0.00109998
2.9625 -0.0500008 0.00109998
2.975 -0.0500008 0.00109998
2.9875 -0.0500008 0.00109998
3 -0.0500008 0.00109998
3.0125 -0.0500008 0.00109999
3.025 -0.0500008 0.00109999
3.0375 -0.0500008 0.00109999
3.05 -0.0500008 0.00109999
3.0625 -0.0500008 0.00109999
3.075 -0.0500008 0.00109999
3.0875 -0.0500008 0.00109999
3.1 -0.0500008 0.00109999
3.1125 -0.0500008 0.00109999
3.125 -0.0500008 0.00109999
3.1375 -0.0500008 0.00109999
3.15 -0.0500008 0.00109999
3.1625 -0.0500008 0.00109999
3.175 -0.0500008 0.00109999
3.1875 -0.0500008 0.00109999
3.2 -0.0500008 0.00109999
3.2125 -0.0500008 0.00109999
3.225 -0.0500008 0.00109999
3.2375 -0.0500008 0.00109999
3.25 -0.0500008 0.00109999
3.2625 -0.0500008 0.00109999
3.275 -0.0500008 0.00109999
3.2875 -0.0500008 0.00109999
3.3 -0.0500008 0.00109999
3.3125 -0.0500008 0.00109999
3.325 -0.0500008 0.00109999
3.3375 -0.0500008 0.00109999
3.35 -0.0500008 0.0011
3.3625 -0.0500008 0.0011
[...]
POINT_DATA 15780
 FIELD attributes 2
p 1 15780 float
-0.0310985 -0.0311146 -0.0311306 -0.0311467 -0.0311627 -0.0311788 -0.0321102 -0.033034 -0.0339577 -0.0348815 -0.0359019 -0.0369657 -0.0380321 -0.0390985 -0.0401648 -0.0411845 -0.042168 -0.0431328 -0.0440976 -0.0450624 -0.0459755 -0.0468733 -0.0477759 -0.0486785 -0.049581 -0.0504777 -0.0513783 -0.0522798 -0.0531813 -0.0540829 -0.0549837 -0.0558912 -0.0567991 -0.0577071 -0.0586151 -0.0595225 -0.0604221 -0.0613196 -0.0622171 -0.0631146 -0.0640092 -0.0648883 -0.0657654 -0.0666426 -0.0675197 -0.0683948 -0.0692522 -0.0701075 -0.0709628 -0.0718181 -0.0726715 -0.0735061 -0.0743382 -0.0751702 -0.0760022 -0.076832 -0.0776402 -0.0784454 -0.0792506 -0.0800557 -0.080858 -0.0816362 -0.0824104 -0.0831847 -0.083959 -0.0847297 -0.0854738 -0.0862138 -0.0869537 -0.0876937 -0.0884297 -0.0891371 -0.0898396 -0.0905422 -0.0912447 -0.0919427 -0.09261 -0.0932721 -0.0939343 -0.0945965 -0.0952536 -0.0958781 -0.0964969 -0.0971158 -0.0977346 -0.0983479 -0.0989269 -0.0995001 -0.100073 -0.100646 -0.101214 -0.101746 -0.102273 -0.102799 -0.103325 -0.103845 -0.10433 -0.104807 -0.105285 -0.105763 -0.106234 -0.106668 -0.107095 -0.107522 -0.107948 -0.108368 -0.108748 -0.109121 -0.109494 -0.109867 -0.110232 -0.110557 -0.110874 -0.111191 -0.111508 -0.111817 -0.112085 -0.112345 -0.112605 -0.112866 -0.113118 -0.113328 -0.113531 -0.113734 -0.113936 -0.114131 -0.114283 -0.114427 -0.114572 -0.114716 -0.114851 -0.114944 -0.11503 -0.115115 -0.115201 -0.115278 -0.115314 -0.115343 -0.115372 -0.115401 -0.115422 -0.115404 -0.115378 -0.115353 -0.115328 -0.115295 -0.115224 -0.115147 -0.115069 -0.114991 -0.114906 -0.114784 -0.114654 -0.114525 -0.114395 -0.114258 -0.114084 -0.113903 -0.113722 -0.113541 -0.113352 -0.113129 -0.112898 -0.112667 -0.112437 -0.112199 -0.111929 -0.111652 -0.111376 -0.111099 -0.110815 -0.110501 -0.11018 -0.109859 -0.109539 -0.109212 -0.108855 -0.108493 -0.10813 -0.107768 -0.107399 -0.107002 -0.1066 -0.106198 -0.105796 -0.105389 -0.104955 -0.104517 -0.104079 -0.103641 -0.103197 -0.10273 -0.10226 -0.101789 -0.101319 -0.100844 -0.10035 -0.0998518 -0.0993537 -0.0988556 -0.0983534 -0.0978346 -0.0973121 -0.0967897 -0.0962672 -0.095741 -0.0952 -0.0946556 -0.0941113 -0.0935669 -0.0930188 -0.0924579 -0.0918941 -0.0913303 -0.0907666 -0.0901996 -0.0896219 -0.0890418 -0.0884616 -0.0878814 -0.0872983 -0.0867068 -0.0861134 -0.08552 -0.0849266 -0.0843309 -0.0837291 -0.0831256 -0.082522 -0.0819185 -0.081313 -0.0807033 -0.0800925 -0.0794816 -0.0788708 -0.0782585 -0.0776441 -0.0770287 -0.0764133 -0.0757979 -0.0751812 -0.0745642 -0.0739468 -0.0733294 -0.072712 -0.0720939 -0.0714771 -0.0708601 -0.0702431 -0.0696261 -0.0690086 -0.068394 -0.0677797 -0.0671653 -0.066551 -0.0659366 -0.0653266 -0.0647169 -0.0641072 -0.0634975 -0.0628879 -0.0622839 -0.0616807 -0.0610775 -0.0604743 -0.0598716 -0.0592757 -0.0586806 -0.0580856 -0.0574906 -0.0568962 -0.0563097 -0.0557245 -0.0551392 -0.0545539 -0.0539697 -0.0533943 -0.0528201 -0.052246 -0.0516719 -0.0510989 -0.0505355 -0.0499737 -0.0494119 -0.0488501 -0.0482898 -0.0477398 -0.0471914 -0.0466431 -0.0460947 -0.0455478 -0.0450119 -0.0444778 -0.0439438 -0.0434098 -0.0428775 -0.0423566 -0.0418377 -0.0413187 -0.0407998 -0.0402826 -0.0397773 -0.0392741 -0.0387709 -0.0382677 -0.0377665 -0.0372774 -0.0367904 -0.0363034 -0.0358164 -0.0353315 -0.0348589 -0.0343885 -0.0339181 -0.0334478 -0.0329796 -0.0325239 -0.0320704 -0.0316169 -0.0311635 -0.0307122 -0.0302734 -0.029837 -0.0294006 -0.0289641 -0.02853 -0.0281083 -0.027689 -0.0272697 -0.0268504 -0.0264334 -0.0260287 -0.0256265 -0.0252243 -0.024822 -0.0244222 -0.0240347 -0.0236495 -0.0232644 -0.0228793 -0.0224966 -0.0221262 -0.0217583 -0.0213904 -0.0210225 -0.0206571 -0.0203039 -0.0199531 -0.0196024 -0.0192517 -0.0189032 -0.0185666 -0.0182326 -0.0178985 -0.0175645 -0.017233 -0.0169126 -0.0165947 -0.0162768 -0.0159589 -0.0156435 -0.0153389 -0.0150366 -0.0147343 -0.0144319 -0.0141321 -0.0138428 -0.0135557 -0.0132686 -0.0129816 -0.0126971 -0.0124228 -0.0121507 -0.0118786 -0.0116065 -0.0113367 -0.011077 -0.0108195 -0.0105621 -0.0103046 -0.0100494 -0.0098041 -0.00956095 -0.00931779 -0.00907463 -0.00883367 -0.00860219 -0.00837276 -0.00814332 -0.00791389 -0.00768653 -0.00746817 -0.00725192 -0.00703567 -0.00681943 -0.00660525 -0.00639972 -0.00619622 -0.00599272 -0.00578922 -0.00558772 -0.0053945 -0.00520338 -0.00501227 -0.00482115 -0.00463213 -0.00445109 -0.00427215 -0.00409322 -0.00391428 -0.00373739 -0.00356815 -0.00340097 -0.00323379 -0.00306661 -0.00290147 -0.00274341 -0.00258724 -0.00243106 -0.00227488 -0.00212073 -0.00197322 -0.00182724 -0.00168125 -0.00153527 -0.00139106 -0.0012531 -0.00111674 -0.00098038 -0.000844019 -0.000709432 -0.000580755 -0.000453687 -0.000326619 -0.000199551 -7.41283e-05 4.55425e-05 0.000163598 0.000281653 0.000399708 0.000516145 0.000627135 0.000736538 0.000845942 0.000955346 0.00106313 0.00116586 0.00126706 0.00136825 0.00146944 0.00156905 0.00166394 0.00175738 0.00185081 0.00194425 0.00203617 0.00212371 0.00220982 0.00229593 0.00238204 0.00246667 0.00254717 0.00262635 0.00270553 0.0027847 0.00286248 0.00293642 0.00300904 0.00308167 0.0031543 0.00322553 0.00329323 0.00335969 0.00342614 0.00349259 0.00355775 0.00361961 0.00368024 0.00374088 0.00380152 0.00386088 0.0039172 0.00397238 0.00402757 0.00408275 0.00413672 0.00418792 0.00423798 0.00428804 0.00433809 0.00438695 0.00443326 0.0044785 0.00452373 0.00456897 0.00461307 0.00465484 0.00469555 0.00473626 0.00477696 0.00481656 0.00485401 0.00489048 0.00492695 0.00496342 0.00499884 0.00503233 0.00506485 0.00509736 0.00512987 0.00516133 0.00519107 0.00521989 0.0052487 0.00527752 0.00530536 0.00533164 0.00535701 0.00538237 0.00540774 0.00543215 0.00545515 0.00547731 0.00549947 0.00552163 0.00554289 0.00556292 0.00558211 0.0056013 0.00562049 0.00563877 0.005656 0.00567243 0.00568887 0.00570531 0.0057209 0.00573558 0.00574947 0.00576336 0.00577726 0.00579032 0.00580258 0.00581413 0.00582567 0.00583721 0.00584798 0.00585808 0.00586746 0.00587684 0.00588622 0.00589482 0.0059029 0.00591029 0.00591768 0.00592508 0.00593175 0.005938 0.00594358 0.00594915 0.00595473 0.00595959 0.00596413 0.00596805 0.00597196 0.00597588 0.00597913 0.00598217 0.00598459 0.005987 0.00598941 0.00599115 0.00599278 0.00599383 0.00599487 0.00599592 0.00599633 0.00599673 0.00599653 0.00599634 0.00599614 0.00599532 0.00599455 0.00599325 0.00599194 0.00599064 0.00598875 0.00598701 0.00598473 0.00598244 0.00598015 0.00597727 0.00597463 0.00597146 0.00596829 0.00596512 0.0059614 0.00595798 0.00595404 0.00595009 0.00594615 0.00594166 0.00593754 0.00593293 0.00592832 0.00592371 0.00591859 0.0059139 0.00590873 0.00590355 0.00589838 0.00589269 0.00588751 0.00588186 0.00587621 0.00587057 0.00586444 0.00585887 0.00585284 0.00584681 0.00584078 0.00583427 0.00582837 0.00582204 0.00581571 0.00580938 0.0058026 0.00579648 0.00578994 0.00578339 0.00577684 0.00576984 0.00576357 0.00575688 0.00575019 0.0057435 0.00573638 0.00573004 0.00572328 0.00571652 0.00570977 0.00570258 0.00569623 0.00568948 0.00568273 0.00567598 0.00566881 0.00566253 0.00565585 0.00564917 0.00564249 0.0056354 0.00562925 0.0056227 0.00561616 0.00560961 0.00560267 0.00559672 0.00559037 0.00558402 0.00557768 0.00557095 0.00556524 0.00555916 0.00555307 0.00554698 0.00554051 0.00553512 0.00552934 0.00552357 0.00551779 0.00551164 0.00550661 0.0055012 0.00549579 0.00549037 0.00548458 0.00547995 0.00547493 0.00546992 0.00546491 0.00545953 0.00545533 0.00545074 0.00544616 0.00544157 0.0054366 0.00543282 0.00542865 0.00542448 0.00542031 0.00541577 0.00541238 0.00540857 0.00540475 0.00540094 0.00539673 0.00539353 0.00538989 0.00538624 0.0053826 0.00537853 0.00537512 0.0053712 0.00536728 0.00536337 0.00535896 0.00535405 0.00534832 0.0053426 0.00533687 0.00533035 0.00532157 0.00531236 0.00530315 0.00529394 0.00528424 0.00525811 0.00522645 0.0051948 0.00516314 0.0051266 0.00511511 0.00511776 0.00512041 0.00512306 0.00514868 0.00523227 0.00530831 0.00538767 0.00545063 0.00549624 0.0054892 0.00548537 0.00548153 0.00547771 0.00547618 0.00550305 0.00553072 0.0055584 0.00557806 0.00559902 0.00561294 0.00563178 0.00565065 0.00566953 0.00568385 0.00574673 0.00581173 0.00587674 0.00594175 0.00599825 0.00608967 0.00616577 0.00624187 0.00631797 0.00632311 0.00630847 0.00628909 0.00626971 0.00625032 0.00624044 0.00603958 0.00581802 0.00559646 0.0053749 0.00504753 0.00456754 0.00407367 0.00357979 0.00308591 0.00262183 0.00235207 0.00207477 0.00179747 0.00152018 0.00127284 0.00117425 0.00106923 0.000964215 0.000859197 0.000773557 0.000667648 0.000556183 0.000444717 0.000333251 0.000255269
-0.0319479 -0.031967 -0.0319861 -0.0320052 -0.0320243 -0.0320434 -0.0327443 -0.0336219 -0.0344046 -0.0351671 -0.0362253 -0.037262 -0.0382524 -0.0392549 -0.0403143 -0.0412983 -0.0422595 -0.0432255 -0.0441661 -0.0451013 -0.0460073 -0.0469053 -0.0478114 -0.0487173 -0.0496225 -0.0505275 -0.0514192 -0.052323 -0.0532316 -0.0541414 -0.0550618 -0.0559669 -0.0568791 -0.0577909 -0.0587004 -0.0596154 -0.0605168 -0.0614151 -0.0623147 -0.0632146 -0.0641107 -0.0649918 -0.0658718 -0.0667514 -0.067629 -0.0685049 -0.0693631 -0.0702187 -0.0710769 -0.0719357 -0.0727922 -0.0736263 -0.0744617 -0.0752965 -0.0761289 -0.0769625 -0.0777698 -0.0785752 -0.0793829 -0.0801911 -0.0809979 -0.0817736 -0.0825507 -0.0833274 -0.0841018 -0.0848778 -0.0856186 -0.0863586 -0.0871009 -0.0878436 -0.088586 -0.0892884 -0.0899935 -0.0906983 -0.0914009 -0.0921063 -0.0927676 -0.0934298 -0.094094 -0.0947586 -0.0954244 -0.0960413 -0.0966624 -0.097283 -0.0979018 -0.0985246 -0.0990936 -0.0996666 -0.100241 -0.100816 -0.101396 -0.101915 -0.102442 -0.10297 -0.103496 -0.104031 -0.104503 -0.10498 -0.105459 -0.105937 -0.106422 -0.106844 -0.107271 -0.107698 -0.108125 -0.108556 -0.108926 -0.109299 -0.109671 -0.110044 -0.110419 -0.110734 -0.11105 -0.111367 -0.111684 -0.112002 -0.112261 -0.112522 -0.112781 -0.11304 -0.1133 -0.113503 -0.113705 -0.113907 -0.114109 -0.114311 -0.114456 -0.1146 -0.114743 -0.114887 -0.11503 -0.115113 -0.115198 -0.115284 -0.115369 -0.115456 -0.11548 -0.115509 -0.115538 -0.115566 -0.1156 -0.115568 -0.115541 -0.115515 -0.11549 -0.11547 -0.115386 -0.115308 -0.115229 -0.115149 -0.115076 -0.11494 -0.114807 -0.114674 -0.114544 -0.114417 -0.11423 -0.114048 -0.113864 -0.11368 -0.1135 -0.113264 -0.11303 -0.112796 -0.112565 -0.112336 -0.112054 -0.111777 -0.111497 -0.111216 -0.11094 -0.110615 -0.110291 -0.109967 -0.109646 -0.109325 -0.10896 -0.108597 -0.108232 -0.107867 -0.107503 -0.1071 -0.106696 -0.106292 -0.10589 -0.105487 -0.105047 -0.104608 -0.104168 -0.103728 -0.103289 -0.102813 -0.10234 -0.101867 -0.101396 -0.100928 -0.100423 -0.099924 -0.0994228 -0.0989212 -0.0984261 -0.097897 -0.0973708 -0.0968451 -0.0963222 -0.095802 -0.0952523 -0.0947076 -0.0941602 -0.0936123 -0.0930692 -0.0925007 -0.0919336 -0.0913671 -0.090803 -0.0902399 -0.0896553 -0.0890747 -0.0884919 -0.0879086 -0.0873291 -0.0867313 -0.0861349 -0.085539 -0.0849452 -0.0843525 -0.0837448 -0.083141 -0.082535 -0.0819286 -0.0813259 -0.080711 -0.0800975 -0.0794844 -0.0788732 -0.0782631 -0.077644 -0.0770283 -0.0764107 -0.0757927 -0.0751781 -0.074557 -0.0739372 -0.0733177 -0.0727001 -0.0720833 -0.071463 -0.0708457 -0.0702269 -0.0696077 -0.0689915 -0.068374 -0.0677577 -0.0671417 -0.0665272 -0.0659136 -0.065301 -0.0646911 -0.0640799 -0.0634684 -0.0628595 -0.0622534 -0.0616486 -0.061044 -0.0604406 -0.0598382 -0.0592405 -0.0586454 -0.0580491 -0.0574526 -0.0568584 -0.0562707 -0.0556841 -0.0550977 -0.0545123 -0.0539279 -0.0533515 -0.0527773 -0.0522022 -0.0516269 -0.0510536 -0.0504897 -0.049927 -0.0493643 -0.0488025 -0.0482416 -0.0476913 -0.0471429 -0.0465938 -0.0460446 -0.0454971 -0.0449613 -0.0444265 -0.0438919 -0.0433578 -0.0428246 -0.0423041 -0.0417851 -0.0412657 -0.0407462 -0.0402281 -0.0397234 -0.0392198 -0.0387162 -0.038213 -0.0377106 -0.0372224 -0.0367354 -0.0362481 -0.0357608 -0.0352748 -0.0348032 -0.0343326 -0.0338621 -0.0333917 -0.0329223 -0.0324677 -0.0320143 -0.0315607 -0.0311072 -0.0306546 -0.0302172 -0.0297808 -0.0293443 -0.028908 -0.0284725 -0.0280523 -0.027633 -0.0272138 -0.0267945 -0.0263762 -0.0259732 -0.0255711 -0.025169 -0.0247668 -0.0243656 -0.0239796 -0.0235945 -0.0232095 -0.0228246 -0.0224406 -0.0220715 -0.0217039 -0.0213363 -0.0209684 -0.0206018 -0.0202498 -0.0198992 -0.0195486 -0.0191982 -0.0188488 -0.0185134 -0.0181795 -0.0178456 -0.0175116 -0.0171789 -0.0168603 -0.0165426 -0.0162248 -0.0159071 -0.0155904 -0.0152879 -0.0149859 -0.0146839 -0.0143817 -0.01408 -0.0137935 -0.0135065 -0.0132198 -0.0129332 -0.0126463 -0.0123749 -0.0121033 -0.0118316 -0.0115595 -0.0112872 -0.0110302 -0.0107728 -0.0105158 -0.0102588 -0.0100013 -0.0097585 -0.0095158 -0.00927302 -0.00902991 -0.00878699 -0.00855801 -0.00832866 -0.00809971 -0.00787085 -0.0076415 -0.00742582 -0.00721029 -0.00699466 -0.00677853 -0.00656266 -0.00635957 -0.00615618 -0.00595331 -0.00575056 -0.00554752 -0.00535653 -0.00516616 -0.00497567 -0.00478464 -0.00459415 -0.004415 -0.00423612 -0.00405764 -0.00387925 -0.00370123 -0.00353322 -0.00336627 -0.00319929 -0.00303214 -0.00286581 -0.00270918 -0.00255307 -0.00239706 -0.00224108 -0.00208575 -0.00194005 -0.00179446 -0.00164883 -0.00150296 -0.00135739 -0.00122197 -0.00108574 -0.000949897 -0.000814135 -0.000677611 -0.000551643 -0.000425239 -0.000298735 -0.000171779 -4.45354e-05 7.27389e-05 0.000190709 0.000308239 0.000425672 0.000543841 0.000652662 0.000761517 0.000870461 0.000979795 0.00108915 0.00118986 0.00129099 0.00139177 0.00149246 0.00159354 0.00168654 0.00177951 0.00187254 0.00196592 0.00205922 0.00214488 0.00223092 0.00231664 0.00240229 0.00248826 0.00256701 0.00264572 0.00272451 0.00280361 0.00288266 0.00295483 0.00302739 0.00309962 0.00317179 0.00324427 0.00331034 0.00337635 0.00344243 0.00350883 0.00357514 0.00363539 0.00369597 0.00375627 0.00381652 0.00387703 0.00393183 0.00398666 0.00404155 0.00409668 0.00415181 0.00420143 0.00425143 0.0043012 0.00435091 0.00440093 0.00444572 0.0044906 0.00453553 0.00458071 0.00462596 0.00466618 0.00470684 0.00474725 0.0047876 0.00482833 0.00486433 0.00490046 0.00493665 0.00497307 0.00500961 0.00504161 0.00507407 0.00510631 0.0051385 0.00517108 0.00519941 0.00522792 0.00525647 0.00528524 0.00531417 0.00533902 0.00536435 0.00538947 0.00541455 0.00544003 0.0054617 0.00548358 0.00550551 0.00552763 0.00554995 0.00556862 0.00558777 0.00560673 0.00562565 0.00564499 0.00566092 0.0056771 0.00569332 0.00570972 0.00572635 0.0057397 0.00575356 0.00576724 0.00578089 0.00579497 0.005806 0.00581731 0.00582865 0.00584016 0.00585193 0.00586076 0.00587011 0.0058793 0.00588845 0.00589807 0.00590493 0.00591211 0.00591933 0.00592669 0.00593435 0.00593937 0.00594491 0.00595032 0.00595569 0.00596154 0.00596492 0.00596865 0.00597241 0.00597629 0.00598052 0.00598236 0.00598475 0.00598701 0.00598924 0.00599197 0.00599246 0.00599333 0.00599423 0.00599525 0.00599664 0.00599585 0.00599563 0.0059953 0.00599494 0.00599509 0.0059932 0.00599175 0.00599031 0.00598898 0.00598807 0.0059852 0.0059829 0.00598048 0.00597804 0.00597612 0.0059724 0.00596908 0.00596579 0.0059626 0.00595982 0.0059553 0.00595134 0.00594729 0.00594321 0.00593965 0.00593448 0.00592975 0.00592504 0.00592041 0.00591621 0.00591046 0.00590527 0.0059 0.00589471 0.00588995 0.00588374 0.00587799 0.00587225 0.00586659 0.00586138 0.00585477 0.00584872 0.00584261 0.00583648 0.00583088 0.00582398 0.00581756 0.00581115 0.00580481 0.00579894 0.0057918 0.00578524 0.00577862 0.00577198 0.0057659 0.00575863 0.00575186 0.0057451 0.0057384 0.0057322 0.00572485 0.00571808 0.00571126 0.00570443 0.00569816 0.00569083 0.00568401 0.0056772 0.00567044 0.0056642 0.00565692 0.00565023 0.0056435 0.00563675 0.00563058 0.00562346 0.00561686 0.00561027 0.00560372 0.0055977 0.00559076 0.0055844 0.00557802 0.00557163 0.00556582 0.00555915 0.00555302 0.0055469 0.00554081 0.00553528 0.0055289 0.00552312 0.00551732 0.00551152 0.00550631 0.00550031 0.00549489 0.00548946 0.00548404 0.00547922 0.00547361 0.00546859 0.00546358 0.00545858 0.00545417 0.005449 0.00544445 0.0054399 0.00543531 0.00543138 0.00542661 0.00542245 0.00541837 0.0054143 0.00541084 0.00540647 0.00540287 0.00539924 0.00539545 0.00539247 0.0053883 0.00538471 0.00538147 0.00537832 0.00537576 0.00537142 0.00536861 0.00536561 0.00536182 0.00535954 0.00535421 0.00534896 0.00534596 0.0053435 0.00534106 0.00533201 0.00533027 0.00532735 0.0053194 0.00531836 0.00530404 0.00527946 0.00527495 0.00527516 0.00526442 0.00522152 0.00523308 0.00524345 0.00524872 0.00531682 0.00541027 0.00547383 0.00553739 0.00557536 0.00552905 0.00550982 0.00550278 0.00549573 0.00548823 0.00549222 0.00550975 0.00552791 0.00554607 0.00555776 0.00556902 0.00557007 0.00557112 0.00557217 0.0055731 0.00557379 0.00559862 0.00562756 0.00565659 0.00568563 0.005659 0.00569714 0.00575978 0.00582279 0.0058858 0.00596578 0.00618005 0.00626905 0.00635151 0.00642761 0.00632068 0.00635654 0.00633715 0.0063207 0.00631124 0.00625586 0.00620931 0.00598775 0.00576619 0.00553205 0.00503846 0.00469884 0.00420496 0.00371109 0.00321453 0.00259574 0.00241412 0.00213682 0.00185952 0.00158223 0.00124244 0.00122334 0.00111832 0.00101331 0.000908288 0.000751125 0.000715134 0.00060367 0.000492207 0.000380743 0.000206749