# vtk DataFile Version 2.0
track0
ASCII
DATASET POLYDATA
POINTS 15780 float
-1.001 -0.05 0.0011
-1.0008 -0.05 0.0011
-1.0006 -0.05 0.0011
-1.0004 -0.05 0.0011
-1.0002 -0.05 0.0011
-1 -0.05 0.0011
-0.9875 -0.05 0.0011
-0.975 -0.05 0.0011
-0.9625 -0.05 0.0011
-0.95 -0.05 0.0011
-0.9375 -0.05 0.00109999
-0.925 -0.05 0.00109999
-0.9125 -0.05 0.00109999
-0.9 -0.05 0.00109999
-0.8875 -0.05 0.00109999
-0.875 -0.05 0.00109999
-0.8625 -0.05 0.00109999
-0.85 -0.05 0.00109999
-0.8375 -0.05 0.00109998
-0.825 -0.0500001 0.00109998
-0.8125 -0.0500001 0.00109998
-0.8 -0.0500001 0.00109998
-0.7875 -0.0500001 0.00109998
-0.775 -0.0500001 0.00109998
-0.7625 -0.0500001 0.00109998
-0.75 -0.0500001 0.00109998
-0.7375 -0.0500001 0.00109997
-0.725 -0.0500001 0.00109997
-0.7125 -0.0500001 0.00109997
-0.7 -0.0500001 0.00109997
-0.6875 -0.0500001 0.00109997
-0.675 -0.0500001 0.00109997
-0.6625 -0.0500001 0.00109997
-0.65 -0.0500001 0.00109996
-0.6375 -0.0500001 0.00109996
-0.625 -0.0500001 0.00109996
-0.6125 -0.0500001 0.00109996
-0.6 -0.0500001 0.00109996
-0.5875 -0.0500001 0.00109996
-0.575 -0.0500001 0.00109996
-0.5625 -0.0500001 0.00109996
-0.55 -0.0500001 0.00109995
-0.5375 -0.0500001 0.00109995
-0.525 -0.0500001 0.00109995
-0.5125 -0.0500001 0.00109995
-0.5 -0.0500001 0.00109995
-0.4875 -0.0500001 0.00109995
-0.475 -0.0500001 0.00109995
-0.4625 -0.0500001 0.00109994
-0.45 -0.0500002 0.00109994
-0.4375 -0.0500002 0.00109994
-0.425 -0.0500002 0.00109994
-0.4125 -0.0500002 0.00109994
-0.4 -0.0500002 0.00109994
-0.3875 -0.0500002 0.00109994
-0.375 -0.0500002 0.00109994
-0.3625 -0.0500002 0.00109993
-0.35 -0.0500002 0.00109993
-0.3375 -0.0500002 0.00109993
-0.325 -0.0500002 0.00109993
-0.3125 -0.0500002 0.00109993
-0.3 -0.0500002 0.00109993
-0.2875 -0.0500002 0.00109993
-0.275 -0.0500002 0.00109993
-0.2625 -0.0500002 0.00109992
-0.25 -0.0500002 0.00109992
-0.2375 -0.0500002 0.00109992
-0.225 -0.0500002 0.00109992
-0.2125 -0.0500002 0.00109992
-0.2 -0.0500002 0.00109992
-0.1875 -0.0500002 0.00109992
-0.175 -0.0500002 0.00109992
-0.1625 -0.0500002 0.00109991
-0.15 -0.0500002 0.00109991
-0.1375 -0.0500002 0.00109991
-0.125 -0.0500002 0.00109991
-0.1125 -0.0500002 0.00109991
-0.1 -0.0500002 0.00109991
-0.0875 -0.0500002 0.00109991
-0.075 -0.0500002 0.00109991
-0.0625 -0.0500002 0.00109991
-0.05 -0.0500003 0.00109991
-0.0375 -0.0500003 0.0010999
-0.025 -0.0500003 0.0010999
-0.0125 -0.0500003 0.0010999
2.10607e-13 -0.0500003 0.0010999
0.0125 -0.0500003 0.0010999
0.025 -0.0500003 0.0010999
0.0375 -0.0500003 0.0010999
0.05 -0.0500003 0.0010999
0.0625 -0.0500003 0.0010999
0.075 -0.0500003 0.0010999
0.0875 -0.0500003 0.0010999
0.1 -0.0500003 0.00109989
0.1125 -0.0500003 0.00109989
0.125 -0.0500003 0.00109989
0.1375 -0.0500003 0.00109989
0.15 -0.0500003 0.00109989
0.1625 -0.0500003 0.00109989
0.175 -0.0500003 0.00109989
0.1875 -0.0500003 0.00109989
0.2 -0.0500003 0.00109989
0.2125 -0.0500003 0.00109989
0.225 -0.0500003 0.00109989
0.2375 -0.0500003 0.00109989
0.25 -0.0500003 0.00109989
0.2625 -0.0500003 0.00109988
0.275 -0.0500003 0.00109988
0.2875 -0.0500003 0.00109988
0.3 -0.0500003 0.00109988
0.3125 -0.0500003 0.00109988
0.325 -0.0500003 0.00109988
0.3375 -0.0500003 0.00109988
0.35 -0.0500003 0.00109988
0.3625 -0.0500003 0.00109988
0.375 -0.0500003 0.00109988
0.3875 -0.0500003 0.00109988
0.4 -0.0500004 0.00109988
0.4125 -0.0500004 0.00109988
0.425 -0.0500004 0.00109988
0.4375 -0.0500004 0.00109988
0.45 -0.0500004 0.00109988
0.4625 -0.0500004 0.00109988
0.475 -0.0500004 0.00109988
0.4875 -0.0500004 0.00109988
0.5 -0.0500004 0.00109988
0.5125 -0.0500004 0.00109988
0.525 -0.0500004 0.00109988
0.5375 -0.0500004 0.00109988
0.55 -0.0500004 0.00109988
0.5625 -0.0500004 0.00109988
0.575 -0.0500004 0.00109987
0.5875 -0.0500004 0.00109987
0.6 -0.0500004 0.00109987
0.6125 -0.0500004 0.00109987
0.625 -0.0500004 0.00109987
0.6375 -0.0500004 0.00109987
0.65 -0.0500004 0.00109987
0.6625 -0.0500004 0.00109987
0.675 -0.0500004 0.00109987
0.6875 -0.0500004 0.00109987
0.7 -0.0500004 0.00109987
0.7125 -0.0500004 0.00109987
0.725 -0.0500004 0.00109987
0.7375 -0.0500004 0.00109987
0.75 -0.0500004 0.00109987
0.7625 -0.0500004 0.00109987
0.775 -0.0500004 0.00109987
0.7875 -0.0500004 0.00109987
0.8 -0.0500004 0.00109987
0.8125 -0.0500004 0.00109987
0.825 -0.0500004 0.00109987
0.8375 -0.0500004 0.00109987
0.85 -0.0500004 0.00109987
0.8625 -0.0500004 0.00109987
0.875 -0.0500004 0.00109987
0.8875 -0.0500004 0.00109987
0.9 -0.0500004 0.00109987
0.9125 -0.0500005 0.00109988
0.925 -0.0500005 0.00109988
0.9375 -0.0500005 0.00109988
0.95 -0.0500005 0.00109988
0.9625 -0.0500005 0.00109988
0.975 -0.0500005 0.00109988
0.9875 -0.0500005 0.00109988
1 -0.0500005 0.00109988
1.0125 -0.0500005 0.00109988
1.025 -0.0500005 0.00109988
1.0375 -0.0500005 0.00109988
1.05 -0.0500005 0.00109988
1.0625 -0.0500005 0.00109988
1.075 -0.0500005 0.00109988
1.0875 -0.0500005 0.00109988
1.1 -0.0500005 0.00109988
1.1125 -0.0500005 0.00109988
1.125 -0.0500005 0.00109988
1.1375 -0.0500005 0.00109988
1.15 -0.0500005 0.00109988
1.1625 -0.0500005 0.00109988
1.175 -0.0500005 0.00109988
1.1875 -0.0500005 0.00109988
1.2 -0.0500005 0.00109988
1.2125 -0.0500005 0.00109988
1.225 -0.0500005 0.00109988
1.2375 -0.0500005 0.00109989
1.25 -0.0500005 0.00109989
1.2625 -0.0500005 0.00109989
1.275 -0.0500005 0.00109989
1.2875 -0.0500005 0.00109989
1.3 -0.0500005 0.00109989
1.3125 -0.0500005 0.00109989
1.325 -0.0500005 0.00109989
1.3375 -0.0500005 0.00109989
1.35 -0.0500005 0.00109989
1.3625 -0.0500005 0.00109989
1.375 -0.0500005 0.00109989
1.3875 -0.0500005 0.00109989
1.4 -0.0500005 0.00109989
1.4125 -0.0500005 0.00109989
1.425 -0.0500005 0.00109989
1.4375 -0.0500005 0.0010999
1.45 -0.0500005 0.0010999
1.4625 -0.0500005 0.0010999
1.475 -0.0500005 0.0010999
1.4875 -0.0500005 0.0010999
1.5 -0.0500006 0.0010999
1.5125 -0.0500006 0.0010999
1.525 -0.0500006 0.0010999
1.5375 -0.0500006 0.0010999
1.55 -0.0500006 0.0010999
1.5625 -0.0500006 0.0010999
1.575 -0.0500006 0.0010999
1.5875 -0.0500006 0.0010999
1.6 -0.0500006 0.0010999
1.6125 -0.0500006 0.00109991
1.625 -0.0500006 0.00109991
1.6375 -0.0500006 0.00109991
1.65 -0.0500006 0.00109991
1.6625 -0.0500006 0.00109991
1.675 -0.0500006 0.00109991
1.6875 -0.0500006 0.00109991
1.7 -0.0500006 0.00109991
1.7125 -0.0500006 0.00109991
1.725 -0.0500006 0.00109991
1.7375 -0.0500006 0.00109991
1.75 -0.0500006 0.00109991
1.7625 -0.0500006 0.00109992
1.775 -0.0500006 0.00109992
1.7875 -0.0500006 0.00109992
1.8 -0.0500006 0.00109992
1.8125 -0.0500006 0.00109992
1.825 -0.0500006 0.00109992
1.8375 -0.0500006 0.00109992
1.85 -0.0500006 0.00109992
1.8625 -0.0500006 0.00109992
1.875 -0.0500006 0.00109992
1.8875 -0.0500006 0.00109992
1.9 -0.0500006 0.00109992
1.9125 -0.0500006 0.00109993
1.925 -0.0500006 0.00109993
1.9375 -0.0500006 0.00109993
1.95 -0.0500006 0.00109993
1.9625 -0.0500006 0.00109993
1.975 -0.0500006 0.00109993
1.9875 -0.0500006 0.00109993
2 -0.0500006 0.00109993
2.0125 -0.0500006 0.00109993
2.025 -0.0500006 0.00109993
2.0375 -0.0500006 0.00109993
2.05 -0.0500006 0.00109993
2.0625 -0.0500006 0.00109993
2.075 -0.0500006 0.00109994
2.0875 -0.0500006 0.00109994
2.1 -0.0500006 0.00109994
2.1125 -0.0500006 0.00109994
2.125 -0.0500006 0.00109994
2.1375 -0.0500006 0.00109994
2.15 -0.0500006 0.00109994
2.1625 -0.0500006 0.00109994
2.175 -0.0500007 0.00109994
2.1875 -0.0500007 0.00109994
2.2 -0.0500007 0.00109994
2.2125 -0.0500007 0.00109994
2.225 -0.0500007 0.00109995
2.2375 -0.0500007 0.00109995
2.25 -0.0500007 0.00109995
2.2625 -0.0500007 0.00109995
2.275 -0.0500007 0.00109995
2.2875 -0.0500007 0.00109995
2.3 -0.0500007 0.00109995
2.3125 -0.0500007 0.00109995
2.325 -0.0500007 0.00109995
2.3375 -0.0500007 0.00109995
2.35 -0.0500007 0.00109995
2.3625 -0.0500007 0.00109995
2.375 -0.0500007 0.00109995
2.3875 -0.0500007 0.00109996
2.4 -0.0500007 0.00109996
2.4125 -0.0500007 0.00109996
2.425 -0.0500007 0.00109996
2.4375 -0.0500007 0.00109996
2.45 -0.0500007 0.00109996
2.4625 -0.0500007 0.00109996
2.475 -0.0500007 0.00109996
2.4875 -0.0500007 0.00109996
2.5 -0.0500007 0.00109996
2.5125 -0.0500007 0.00109996
2.525 -0.0500007 0.00109996
2.5375 -0.0500007 0.00109996
2.55 -0.0500007 0.00109996
2.5625 -0.0500007 0.00109997
2.575 -0.0500007 0.00109997
2.5875 -0.0500007 0.00109997
2.6 -0.0500007 0.00109997
2.6125 -0.0500007 0.00109997
2.625 -0.0500007 0.00109997
2.6375 -0.0500007 0.00109997
2.65 -0.0500007 0.00109997
2.6625 -0.0500007 0.00109997
2.675 -0.0500007 0.00109997
2.6875 -0.0500007 0.00109997
2.7 -0.0500007 0.00109997
2.7125 -0.0500007 0.00109997
2.725 -0.0500007 0.00109997
2.7375 -0.0500007 0.00109997
2.75 -0.0500007 0.00109997
2.7625 -0.0500007 0.00109998
2.775 -0.0500007 0.00109998
2.7875 -0.0500007 0.00109998
2.8 -0.0500007 0.00109998
2.8125 -0.0500007 0.00109998
2.825 -0.0500007 0.00109998
2.8375 -0.0500007 0.00109998
2.85 -0.0500007 0.00109998
2.8625 -0.0500008 0.00109998
2.875 -0.0500008 0.00109998
2.8875 -0.0500008 0.00109998
2.9 -0.0500008 0.00109998
2.9125 -0.0500008 0.00109998
2.925 -0.0500008 0.00109998
2.9375 -0.0500008 0.00109998
2.95 -0.0500008 0.00109998
2.9625 -0.0500008 0.00109998
2.975 -0.0500008 0.00109998
2.9875 -0.0500008 0.00109998
3 -0.0500008 0.00109998
3.0125 -0.0500008 0.00109999
3.025 -0.0500008 0.00109999
3.0375 -0.0500008 0.00109999
3.05 -0.0500008 0.00109999
3.0625 -0.0500008 0.00109999
3.075 -0.0500008 0.00109999
3.0875 -0.0500008 0.00109999
3.1 -0.0500008 0.00109999
3.1125 -0.0500008 0.00109999
3.125 -0.0500008 0.00109999
3.1375 -0.0500008 0.00109999
3.15 -0.0500008 0.00109999
3.1625 -0.0500008 0.00109999
3.175 -0.0500008 0.00109999
3.1875 -0.0500008 0.00109999
3.2 -0.0500008 0.00109999
3.2125 -0.0500008 0.00109999
3.225 -0.0500008 0.00109999
3.2375 -0.0500008 0.00109999
3.25 -0.0500008 0.00109999
3.2625 -0.0500008 0.00109999
3.275 -0.0500008 0.00109999
3.2875 -0.0500008 0.00109999
3.3 -0.0500008 0.00109999
3.3125 -0.0500008 0.00109999
3.325 -0.0500008 0.00109999
3.3375 -0.0500008 0.00109999
3.35 -0.0500008 0.0011
3.3625 -0.0500008 0.0011
[...]
POINT_DATA 15780
 FIELD attributes 1
U 3 15780 float
30.0002 	-7.01784e-06 	-6.30587e-06 30.0002 	-6.84335e-06 	-6.51454e-06 30.0002 	-6.66887e-06 	-6.72321e-06 30.0002 	-6.49438e-06 	-6.93187e-06 30.0002 	-6.31989e-06 	-7.14054e-06 30.0002 	-6.1454e-06 	-7.34921e-06 30.0004 	-1.2385e-05 	-1.261e-06 30.0004 	-1.2385e-05 	-1.261e-06 30.0004 	-1.2385e-05 	-1.261e-06 30.0004 	-1.2385e-05 	-1.261e-06 30.0002 	-7.04495e-08 	-6.84367e-06 30.0005 	-1.07089e-05 	-1.68704e-06 30.0005 	-1.07089e-05 	-1.68704e-06 30.0005 	-1.07089e-05 	-1.68704e-06 30.0005 	-1.07089e-05 	-1.68704e-06 30.0002 	-7.21221e-08 	-6.59608e-06 30.0005 	-9.95833e-06 	-2.08022e-06 30.0005 	-9.95833e-06 	-2.08022e-06 30.0005 	-9.95832e-06 	-2.08022e-06 30.0005 	-9.95831e-06 	-2.08022e-06 30.0003 	-4.593e-06 	-6.24726e-06 30.0005 	-9.69155e-06 	-2.34895e-06 30.0005 	-9.69155e-06 	-2.34894e-06 30.0005 	-9.69154e-06 	-2.34894e-06 30.0005 	-9.69153e-06 	-2.34894e-06 30.0003 	-7.56938e-08 	-6.57615e-06 30.0005 	-9.52333e-06 	-2.49781e-06 30.0005 	-9.52333e-06 	-2.49781e-06 30.0005 	-9.52332e-06 	-2.49781e-06 30.0005 	-9.52331e-06 	-2.4978e-06 30.0003 	-7.74379e-08 	-6.52626e-06 30.0005 	-9.38696e-06 	-2.55605e-06 30.0005 	-9.38695e-06 	-2.55605e-06 30.0005 	-9.38694e-06 	-2.55605e-06 30.0005 	-9.38693e-06 	-2.55604e-06 30.0003 	-4.26678e-06 	-6.08528e-06 30.0005 	-9.27952e-06 	-2.55828e-06 30.0005 	-9.27951e-06 	-2.55828e-06 30.0005 	-9.2795e-06 	-2.55827e-06 30.0005 	-9.27949e-06 	-2.55827e-06 30.0003 	-4.19916e-06 	-5.97789e-06 30.0006 	-9.18728e-06 	-2.53041e-06 30.0006 	-9.18727e-06 	-2.53041e-06 30.0006 	-9.18726e-06 	-2.53041e-06 30.0006 	-9.18725e-06 	-2.53041e-06 30.0003 	-8.26972e-08 	-6.20126e-06 30.0006 	-9.09719e-06 	-2.48117e-06 30.0006 	-9.09718e-06 	-2.48116e-06 30.0006 	-9.09717e-06 	-2.48116e-06 30.0006 	-9.09716e-06 	-2.48116e-06 30.0003 	-8.44386e-08 	-6.05423e-06 30.0006 	-9.00472e-06 	-2.41359e-06 30.0006 	-9.00471e-06 	-2.41359e-06 30.0006 	-9.0047e-06 	-2.41359e-06 30.0006 	-9.00469e-06 	-2.41359e-06 30.0003 	-8.61871e-08 	-5.88781e-06 30.0006 	-8.90856e-06 	-2.32971e-06 30.0006 	-8.90855e-06 	-2.32971e-06 30.0006 	-8.90855e-06 	-2.32971e-06 30.0006 	-8.90854e-06 	-2.3297e-06 30.0003 	-3.93771e-06 	-5.36347e-06 30.0006 	-8.80851e-06 	-2.23273e-06 30.0006 	-8.8085e-06 	-2.23273e-06 30.0006 	-8.8085e-06 	-2.23273e-06 30.0006 	-8.80849e-06 	-2.23273e-06 30.0003 	-3.86391e-06 	-5.16475e-06 30.0006 	-8.7042e-06 	-2.12413e-06 30.0006 	-8.70419e-06 	-2.12413e-06 30.0006 	-8.70418e-06 	-2.12413e-06 30.0006 	-8.70418e-06 	-2.12412e-06 30.0003 	-9.14237e-08 	-5.28457e-06 30.0006 	-8.59599e-06 	-2.00507e-06 30.0006 	-8.59599e-06 	-2.00507e-06 30.0006 	-8.59598e-06 	-2.00507e-06 30.0006 	-8.59598e-06 	-2.00506e-06 30.0003 	-3.70428e-06 	-4.7194e-06 30.0007 	-8.48462e-06 	-1.87667e-06 30.0007 	-8.48461e-06 	-1.87667e-06 30.0007 	-8.48461e-06 	-1.87667e-06 30.0007 	-8.4846e-06 	-1.87667e-06 30.0003 	-3.61918e-06 	-4.47431e-06 30.0007 	-8.37127e-06 	-1.73883e-06 30.0007 	-8.37126e-06 	-1.73883e-06 30.0007 	-8.37126e-06 	-1.73883e-06 30.0007 	-8.37125e-06 	-1.73883e-06 30.0004 	-9.66458e-08 	-4.54319e-06 30.0007 	-8.25969e-06 	-1.59803e-06 30.0007 	-8.25968e-06 	-1.59803e-06 30.0007 	-8.25968e-06 	-1.59803e-06 30.0007 	-8.25967e-06 	-1.59803e-06 30.0004 	-9.83858e-08 	-4.27124e-06 30.0007 	-8.14769e-06 	-1.46323e-06 30.0007 	-8.14768e-06 	-1.46323e-06 30.0007 	-8.14768e-06 	-1.46323e-06 30.0007 	-8.14767e-06 	-1.46323e-06 30.0004 	-1.00124e-07 	-3.98927e-06 30.0007 	-8.01962e-06 	-1.32072e-06 30.0007 	-8.01962e-06 	-1.32072e-06 30.0007 	-8.01961e-06 	-1.32072e-06 30.0007 	-8.01961e-06 	-1.32072e-06 30.0004 	-3.25084e-06 	-3.37795e-06 30.0007 	-7.88083e-06 	-1.16801e-06 30.0007 	-7.88083e-06 	-1.16801e-06 30.0007 	-7.88083e-06 	-1.16801e-06 30.0007 	-7.88082e-06 	-1.16801e-06 30.0004 	-1.0356e-07 	-3.40288e-06 30.0007 	-7.74491e-06 	-1.00788e-06 30.0007 	-7.74491e-06 	-1.00788e-06 30.0007 	-7.74491e-06 	-1.00788e-06 30.0007 	-7.7449e-06 	-1.00788e-06 30.0004 	-1.05277e-07 	-3.10328e-06 30.0007 	-7.61078e-06 	-8.41866e-07 30.0007 	-7.61078e-06 	-8.41866e-07 30.0007 	-7.61077e-06 	-8.41866e-07 30.0007 	-7.61077e-06 	-8.41866e-07 30.0004 	-2.93168e-06 	-2.48789e-06 30.0007 	-7.47501e-06 	-6.70216e-07 30.0007 	-7.47501e-06 	-6.70216e-07 30.0007 	-7.475e-06 	-6.70216e-07 30.0007 	-7.475e-06 	-6.70216e-07 30.0004 	-2.82521e-06 	-2.18313e-06 30.0007 	-7.34288e-06 	-4.97063e-07 30.0007 	-7.34288e-06 	-4.97063e-07 30.0007 	-7.34288e-06 	-4.97063e-07 30.0007 	-7.34288e-06 	-4.97063e-07 30.0004 	-1.10375e-07 	-2.17112e-06 30.0007 	-7.21509e-06 	-3.17337e-07 30.0007 	-7.21509e-06 	-3.17337e-07 30.0007 	-7.21509e-06 	-3.17337e-07 30.0007 	-7.21509e-06 	-3.17337e-07 30.0004 	-1.12057e-07 	-1.85338e-06 30.0007 	-7.09836e-06 	-1.38232e-07 30.0007 	-7.09836e-06 	-1.38232e-07 30.0007 	-7.09836e-06 	-1.38232e-07 30.0007 	-7.09836e-06 	-1.38232e-07 30.0004 	-1.13719e-07 	-1.54904e-06 30.0007 	-6.98503e-06 	4.08354e-08 30.0007 	-6.98503e-06 	4.08354e-08 30.0007 	-6.98503e-06 	4.08354e-08 30.0007 	-6.98503e-06 	4.08354e-08 30.0004 	-2.43879e-06 	-9.58512e-07 30.0007 	-6.87144e-06 	2.14648e-07 30.0007 	-6.87144e-06 	2.14648e-07 30.0007 	-6.87144e-06 	2.14648e-07 30.0007 	-6.87144e-06 	2.14648e-07 30.0004 	-2.34718e-06 	-6.82311e-07 30.0007 	-6.75331e-06 	3.90698e-07 30.0007 	-6.75331e-06 	3.90698e-07 30.0007 	-6.75331e-06 	3.90698e-07 30.0007 	-6.75331e-06 	3.90698e-07 30.0004 	-1.18704e-07 	-7.09786e-07 30.0007 	-6.64282e-06 	5.64352e-07 30.0007 	-6.64282e-06 	5.64352e-07 30.0007 	-6.64282e-06 	5.64352e-07 30.0007 	-6.64282e-06 	5.64352e-07 30.0004 	-2.16686e-06 	-1.45452e-07 30.0007 	-6.53585e-06 	7.27379e-07 30.0007 	-6.53585e-06 	7.27379e-07 30.0007 	-6.53585e-06 	7.27379e-07 30.0007 	-6.53585e-06 	7.27379e-07 30.0004 	-2.08119e-06 	1.13826e-07 30.0007 	-6.43054e-06 	8.78817e-07 30.0007 	-6.43055e-06 	8.78818e-07 30.0007 	-6.43055e-06 	8.78818e-07 30.0007 	-6.43055e-06 	8.78818e-07 30.0004 	-1.2363e-07 	7.05624e-08 30.0007 	-6.32298e-06 	1.01777e-06 30.0007 	-6.32298e-06 	1.01777e-06 30.0007 	-6.32299e-06 	1.01777e-06 30.0007 	-6.32299e-06 	1.01777e-06 30.0004 	-1.25221e-07 	3.15794e-07 30.0007 	-6.21661e-06 	1.1406e-06 30.0007 	-6.21662e-06 	1.1406e-06 30.0007 	-6.21662e-06 	1.14061e-06 30.0007 	-6.21662e-06 	1.14061e-06 30.0004 	-1.26806e-07 	5.45513e-07 30.0007 	-6.11535e-06 	1.25631e-06 30.0007 	-6.11535e-06 	1.25631e-06 30.0007 	-6.11535e-06 	1.25631e-06 30.0007 	-6.11536e-06 	1.25631e-06 30.0004 	-1.76438e-06 	1.03207e-06 30.0007 	-6.02262e-06 	1.37125e-06 30.0007 	-6.02263e-06 	1.37126e-06 30.0007 	-6.02263e-06 	1.37126e-06 30.0007 	-6.02263e-06 	1.37126e-06 30.0004 	-1.29908e-07 	9.36932e-07 30.0007 	-5.94295e-06 	1.48848e-06 30.0007 	-5.94296e-06 	1.48848e-06 30.0007 	-5.94296e-06 	1.48848e-06 30.0007 	-5.94296e-06 	1.48848e-06 30.0004 	-1.31404e-07 	1.10455e-06 30.0007 	-5.87172e-06 	1.59287e-06 30.0007 	-5.87172e-06 	1.59287e-06 30.0007 	-5.87173e-06 	1.59287e-06 30.0007 	-5.87173e-06 	1.59287e-06 30.0004 	-1.59148e-06 	1.53876e-06 30.0007 	-5.80209e-06 	1.6793e-06 30.0007 	-5.80209e-06 	1.6793e-06 30.0007 	-5.8021e-06 	1.6793e-06 30.0007 	-5.8021e-06 	1.6793e-06 30.0003 	-1.54426e-06 	1.67821e-06 30.0007 	-5.73401e-06 	1.75009e-06 30.0007 	-5.73401e-06 	1.75009e-06 30.0007 	-5.73402e-06 	1.75009e-06 30.0007 	-5.73402e-06 	1.75009e-06 30.0003 	-1.36076e-07 	1.52471e-06 30.0006 	-5.66885e-06 	1.80979e-06 30.0006 	-5.66885e-06 	1.80979e-06 30.0006 	-5.66886e-06 	1.80979e-06 30.0006 	-5.66886e-06 	1.8098e-06 30.0003 	-1.37612e-07 	1.63226e-06 30.0006 	-5.60874e-06 	1.85992e-06 30.0006 	-5.60875e-06 	1.85993e-06 30.0006 	-5.60875e-06 	1.85993e-06 30.0006 	-5.60875e-06 	1.85993e-06 30.0003 	-1.39062e-07 	1.72399e-06 30.0006 	-5.55441e-06 	1.90042e-06 30.0006 	-5.55441e-06 	1.90042e-06 30.0006 	-5.55442e-06 	1.90042e-06 30.0006 	-5.55442e-06 	1.90042e-06 30.0003 	-1.38887e-06 	2.07103e-06 30.0006 	-5.50554e-06 	1.93108e-06 30.0006 	-5.50554e-06 	1.93108e-06 30.0006 	-5.50555e-06 	1.93108e-06 30.0006 	-5.50555e-06 	1.93108e-06 30.0003 	-1.36182e-06 	2.13096e-06 30.0006 	-5.46175e-06 	1.95181e-06 30.0006 	-5.46175e-06 	1.95181e-06 30.0006 	-5.46175e-06 	1.95181e-06 30.0006 	-5.46176e-06 	1.95181e-06 30.0003 	-1.4301e-07 	1.90825e-06 30.0006 	-5.42287e-06 	1.96275e-06 30.0006 	-5.42288e-06 	1.96275e-06 30.0006 	-5.42288e-06 	1.96275e-06 30.0006 	-5.42289e-06 	1.96276e-06 30.0003 	-1.32338e-06 	2.20766e-06 30.0006 	-5.38888e-06 	1.96428e-06 30.0006 	-5.38888e-06 	1.96428e-06 30.0006 	-5.38888e-06 	1.96428e-06 30.0006 	-5.38889e-06 	1.96428e-06 30.0003 	-1.31159e-06 	2.22554e-06 30.0006 	-5.35965e-06 	1.95687e-06 30.0006 	-5.35965e-06 	1.95687e-06 30.0006 	-5.35965e-06 	1.95688e-06 30.0006 	-5.35966e-06 	1.95688e-06 30.0003 	-1.46792e-07 	1.96616e-06 30.0005 	-5.33508e-06 	1.94107e-06 30.0005 	-5.33509e-06 	1.94107e-06 30.0005 	-5.33509e-06 	1.94107e-06 30.0005 	-5.33509e-06 	1.94107e-06 30.0003 	-1.48007e-07 	1.96056e-06 30.0005 	-5.31504e-06 	1.91787e-06 30.0005 	-5.31504e-06 	1.91788e-06 30.0005 	-5.31505e-06 	1.91788e-06 30.0005 	-5.31505e-06 	1.91788e-06 30.0003 	-1.49202e-07 	1.94422e-06 30.0005 	-5.2994e-06 	1.88794e-06 30.0005 	-5.29941e-06 	1.88794e-06 30.0005 	-5.29941e-06 	1.88794e-06 30.0005 	-5.29942e-06 	1.88794e-06 30.0003 	-1.30895e-06 	2.17899e-06 30.0005 	-5.28802e-06 	1.85184e-06 30.0005 	-5.28803e-06 	1.85184e-06 30.0005 	-5.28803e-06 	1.85184e-06 30.0005 	-5.28803e-06 	1.85184e-06 30.0003 	-1.51511e-07 	1.88228e-06 30.0005 	-5.2807e-06 	1.81001e-06 30.0005 	-5.2807e-06 	1.81001e-06 30.0005 	-5.2807e-06 	1.81001e-06 30.0005 	-5.28071e-06 	1.81001e-06 30.0003 	-1.52612e-07 	1.83815e-06 30.0005 	-5.27721e-06 	1.76308e-06 30.0005 	-5.27721e-06 	1.76309e-06 30.0005 	-5.27722e-06 	1.76309e-06 30.0005 	-5.27722e-06 	1.76309e-06 30.0003 	-1.34812e-06 	2.04407e-06 30.0005 	-5.27734e-06 	1.71154e-06 30.0005 	-5.27734e-06 	1.71154e-06 30.0005 	-5.27735e-06 	1.71154e-06 30.0005 	-5.27735e-06 	1.71155e-06 30.0003 	-1.36817e-06 	1.98423e-06 30.0005 	-5.28086e-06 	1.65591e-06 30.0005 	-5.28086e-06 	1.65591e-06 30.0005 	-5.28087e-06 	1.65591e-06 30.0005 	-5.28087e-06 	1.65591e-06 30.0002 	-1.55772e-07 	1.66278e-06 30.0005 	-5.28762e-06 	1.59659e-06 30.0005 	-5.28762e-06 	1.59659e-06 30.0005 	-5.28762e-06 	1.59659e-06 30.0005 	-5.28763e-06 	1.59659e-06 30.0002 	-1.56813e-07 	1.59253e-06 30.0004 	-5.29754e-06 	1.53407e-06 30.0004 	-5.29755e-06 	1.53407e-06 30.0004 	-5.29755e-06 	1.53407e-06 30.0004 	-5.29755e-06 	1.53407e-06 30.0002 	-1.57879e-07 	1.51767e-06 30.0004 	-5.31046e-06 	1.4688e-06 30.0004 	-5.31046e-06 	1.4688e-06 30.0004 	-5.31046e-06 	1.4688e-06 30.0004 	-5.31047e-06 	1.4688e-06 30.0002 	-1.47979e-06 	1.69061e-06 30.0004 	-5.32597e-06 	1.40134e-06 30.0004 	-5.32598e-06 	1.40135e-06 30.0004 	-5.32598e-06 	1.40135e-06 30.0004 	-5.32598e-06 	1.40135e-06 30.0002 	-1.5143e-06 	1.60712e-06 30.0004 	-5.34383e-06 	1.33209e-06 30.0004 	-5.34384e-06 	1.3321e-06 30.0004 	-5.34384e-06 	1.3321e-06 30.0004 	-5.34384e-06 	1.3321e-06 30.0002 	-1.61091e-07 	1.27184e-06 30.0004 	-5.36381e-06 	1.26138e-06 30.0004 	-5.36381e-06 	1.26138e-06 30.0004 	-5.36381e-06 	1.26138e-06 30.0004 	-5.36381e-06 	1.26138e-06 30.0002 	-1.58962e-06 	1.43249e-06 30.0004 	-5.38561e-06 	1.18971e-06 30.0004 	-5.38561e-06 	1.18971e-06 30.0004 	-5.38561e-06 	1.18971e-06 30.0004 	-5.38562e-06 	1.18971e-06 30.0002 	-1.6301e-06 	1.34241e-06 30.0004 	-5.4092e-06 	1.11738e-06 30.0004 	-5.4092e-06 	1.11738e-06 30.0004 	-5.40921e-06 	1.11738e-06 30.0004 	-5.40921e-06 	1.11738e-06 30.0002 	-1.64093e-07 	1.00606e-06 30.0004 	-5.43433e-06 	1.04471e-06 30.0004 	-5.43433e-06 	1.04471e-06 30.0004 	-5.43433e-06 	1.04471e-06 30.0004 	-5.43434e-06 	1.04471e-06 30.0002 	-1.65039e-07 	9.15586e-07 30.0004 	-5.45996e-06 	9.72172e-07 30.0004 	-5.45996e-06 	9.72173e-07 30.0004 	-5.45996e-06 	9.72173e-07 30.0004 	-5.45996e-06 	9.72173e-07 30.0002 	-1.65939e-07 	8.24962e-07 30.0004 	-5.48598e-06 	8.99393e-07 30.0004 	-5.48598e-06 	8.99393e-07 30.0004 	-5.48598e-06 	8.99393e-07 30.0004 	-5.48598e-06 	8.99394e-07 30.0002 	-1.80698e-06 	9.75422e-07 30.0004 	-5.51274e-06 	8.25864e-07 30.0004 	-5.51274e-06 	8.25864e-07 30.0004 	-5.51274e-06 	8.25865e-07 30.0004 	-5.51275e-06 	8.25865e-07 30.0002 	-1.67632e-07 	6.43596e-07 30.0003 	-5.54248e-06 	7.51906e-07 30.0003 	-5.54248e-06 	7.51906e-07 30.0003 	-5.54248e-06 	7.51906e-07 30.0003 	-5.54248e-06 	7.51907e-07 30.0002 	-1.68466e-07 	5.52601e-07 30.0003 	-5.57695e-06 	6.77364e-07 30.0003 	-5.57695e-06 	6.77365e-07 30.0003 	-5.57695e-06 	6.77365e-07 30.0003 	-5.57695e-06 	6.77365e-07 30.0002 	-1.95534e-06 	7.01316e-07 30.0003 	-5.61378e-06 	6.04294e-07 30.0003 	-5.61378e-06 	6.04294e-07 30.0003 	-5.61379e-06 	6.04295e-07 30.0003 	-5.61379e-06 	6.04295e-07 30.0002 	-2.00753e-06 	6.11686e-07 30.0003 	-5.6499e-06 	5.34588e-07 30.0003 	-5.6499e-06 	5.34588e-07 30.0003 	-5.6499e-06 	5.34588e-07 30.0003 	-5.6499e-06 	5.34588e-07 30.0002 	-1.70952e-07 	2.80904e-07 30.0003 	-5.681e-06 	4.6757e-07 30.0003 	-5.681e-06 	4.6757e-07 30.0003 	-5.681e-06 	4.6757e-07 30.0003 	-5.681e-06 	4.6757e-07 30.0002 	-1.71781e-07 	1.9729e-07 30.0003 	-5.70941e-06 	4.03129e-07 30.0003 	-5.70941e-06 	4.03129e-07 30.0003 	-5.70941e-06 	4.03129e-07 30.0003 	-5.70941e-06 	4.03129e-07 30.0002 	-1.72576e-07 	1.16361e-07 30.0003 	-5.73757e-06 	3.39165e-07 30.0003 	-5.73757e-06 	3.39165e-07 30.0003 	-5.73757e-06 	3.39165e-07 30.0003 	-5.73757e-06 	3.39165e-07 30.0002 	-2.20079e-06 	2.74087e-07 30.0003 	-5.76554e-06 	2.75198e-07 30.0003 	-5.76554e-06 	2.75198e-07 30.0003 	-5.76554e-06 	2.75198e-07 30.0003 	-5.76554e-06 	2.75198e-07 30.0002 	-2.24771e-06 	1.96346e-07 30.0003 	-5.79233e-06 	2.10721e-07 30.0003 	-5.79233e-06 	2.10721e-07 30.0003 	-5.79233e-06 	2.10721e-07 30.0003 	-5.79233e-06 	2.10721e-07 30.0002 	-1.74761e-07 	-1.09181e-07 30.0003 	-5.82036e-06 	1.48724e-07 30.0003 	-5.82036e-06 	1.48724e-07 30.0003 	-5.82036e-06 	1.48724e-07 30.0003 	-5.82036e-06 	1.48724e-07 30.0002 	-2.3415e-06 	4.46633e-08 30.0003 	-5.84961e-06 	8.99297e-08 30.0003 	-5.84961e-06 	8.99297e-08 30.0003 	-5.84961e-06 	8.99297e-08 30.0003 	-5.84961e-06 	8.99297e-08 30.0002 	-2.3888e-06 	-2.91097e-08 30.0003 	-5.88003e-06 	3.47599e-08 30.0003 	-5.88003e-06 	3.47599e-08 30.0003 	-5.88003e-06 	3.47599e-08 30.0003 	-5.88003e-06 	3.47599e-08 30.0002 	-1.7678e-07 	-3.30805e-07 30.0003 	-5.91186e-06 	-1.71141e-08 30.0003 	-5.91186e-06 	-1.71141e-08 30.0003 	-5.91186e-06 	-1.71141e-08 30.0003 	-5.91186e-06 	-1.71141e-08 30.0002 	-1.77422e-07 	-4.01838e-07 30.0003 	-5.94497e-06 	-6.90891e-08 30.0003 	-5.94497e-06 	-6.90891e-08 30.0003 	-5.94497e-06 	-6.90891e-08 30.0003 	-5.94497e-06 	-6.90891e-08 30.0002 	-1.78024e-07 	-4.67109e-07 30.0003 	-5.97691e-06 	-1.23352e-07 30.0003 	-5.97691e-06 	-1.23352e-07 30.0003 	-5.97691e-06 	-1.23352e-07 30.0003 	-5.97691e-06 	-1.23352e-07 30.0002 	-2.58033e-06 	-3.01385e-07 30.0003 	-6.00468e-06 	-1.77993e-07 30.0003 	-6.00468e-06 	-1.77993e-07 30.0003 	-6.00468e-06 	-1.77993e-07 30.0003 	-6.00468e-06 	-1.77993e-07 30.0002 	-1.79203e-07 	-5.84917e-07 30.0003 	-6.02882e-06 	-2.29247e-07 30.0003 	-6.02882e-06 	-2.29247e-07 30.0003 	-6.02882e-06 	-2.29247e-07 30.0003 	-6.02882e-06 	-2.29247e-07 30.0002 	-1.79811e-07 	-6.42178e-07 30.0003 	-6.05206e-06 	-2.76209e-07 30.0003 	-6.05206e-06 	-2.76209e-07 30.0003 	-6.05206e-06 	-2.76209e-07 30.0003 	-6.05206e-06 	-2.76209e-07 30.0002 	-2.70839e-06 	-4.78987e-07 30.0003 	-6.0759e-06 	-3.19693e-07 30.0003 	-6.0759e-06 	-3.19693e-07 30.0003 	-6.0759e-06 	-3.19693e-07 30.0003 	-6.0759e-06 	-3.19693e-07 30.0002 	-2.74942e-06 	-5.3403e-07 30.0003 	-6.10022e-06 	-3.61216e-07 30.0003 	-6.10022e-06 	-3.61216e-07 30.0003 	-6.10021e-06 	-3.61216e-07 30.0003 	-6.10021e-06 	-3.61216e-07 30.0002 	-1.81549e-07 	-8.03814e-07 30.0003 	-6.12425e-06 	-4.01411e-07 30.0003 	-6.12425e-06 	-4.01411e-07 30.0003 	-6.12425e-06 	-4.0141e-07 30.0003 	-6.12425e-06 	-4.0141e-07 30.0001 	-1.8209e-07 	-8.53131e-07 30.0003 	-6.14763e-06 	-4.40404e-07 30.0003 	-6.14762e-06 	-4.40404e-07 30.0003 	-6.14762e-06 	-4.40404e-07 30.0003 	-6.14762e-06 	-4.40404e-07 30.0001 	-1.82614e-07 	-9.0034e-07 30.0003 	-6.17026e-06 	-4.78029e-07 30.0003 	-6.17026e-06 	-4.78028e-07 30.0003 	-6.17026e-06 	-4.78028e-07 30.0003 	-6.17026e-06 	-4.78028e-07 30.0001 	-2.9089e-06 	-7.31461e-07 30.0003 	-6.19203e-06 	-5.14245e-07 30.0003 	-6.19203e-06 	-5.14245e-07 30.0003 	-6.19203e-06 	-5.14245e-07 30.0003 	-6.19203e-06 	-5.14244e-07 30.0001 	-2.94677e-06 	-7.75587e-07 30.0003 	-6.21302e-06 	-5.48861e-07 30.0003 	-6.21301e-06 	-5.48861e-07 30.0003 	-6.21301e-06 	-5.48861e-07 30.0003 	-6.21301e-06 	-5.48861e-07 30.0001 	-1.84131e-07 	-1.02955e-06 30.0003 	-6.23314e-06 	-5.82072e-07 30.0003 	-6.23314e-06 	-5.82072e-07 30.0003 	-6.23314e-06 	-5.82072e-07 30.0003 	-6.23314e-06 	-5.82072e-07 30.0001 	-3.01977e-06 	-8.57474e-07 30.0003 	-6.25239e-06 	-6.13917e-07 30.0003 	-6.25239e-06 	-6.13917e-07 30.0003 	-6.25239e-06 	-6.13917e-07 30.0003 	-6.25239e-06 	-6.13917e-07 30.0001 	-3.05487e-06 	-8.95481e-07 30.0003 	-6.27088e-06 	-6.44443e-07 30.0003 	-6.27088e-06 	-6.44443e-07 30.0003 	-6.27088e-06 	-6.44443e-07 30.0003 	-6.27088e-06 	-6.44443e-07 30.0001 	-1.85559e-07 	-1.14086e-06 30.0003 	-6.28872e-06 	-6.73644e-07 30.0003 	-6.28872e-06 	-6.73644e-07 30.0003 	-6.28871e-06 	-6.73644e-07 30.0003 	-6.28871e-06 	-6.73644e-07 30.0001 	-1.86026e-07 	-1.17461e-06 30.0003 	-6.30572e-06 	-7.01462e-07 30.0003 	-6.30572e-06 	-7.01461e-07 30.0003 	-6.30572e-06 	-7.01461e-07 30.0003 	-6.30572e-06 	-7.01461e-07 30.0001 	-1.86473e-07 	-1.2067e-06 30.0003 	-6.3218e-06 	-7.27897e-07 30.0003 	-6.32179e-06 	-7.27897e-07 30.0003 	-6.32179e-06 	-7.27897e-07 30.0003 	-6.32179e-06 	-7.27896e-07 30.0001 	-3.18633e-06 	-1.031e-06 30.0003 	-6.33705e-06 	-7.53007e-07 30.0003 	-6.33705e-06 	-7.53006e-07 30.0003 	-6.33705e-06 	-7.53006e-07 30.0003 	-6.33704e-06 	-7.53006e-07 30.0001 	-1.87336e-07 	-1.26598e-06 30.0003 	-6.35158e-06 	-7.76974e-07 30.0003 	-6.35158e-06 	-7.76974e-07 30.0003 	-6.35158e-06 	-7.76974e-07 30.0003 	-6.35158e-06 	-7.76974e-07 30.0001 	-1.87763e-07 	-1.29333e-06 30.0003 	-6.36538e-06 	-7.99846e-07 30.0003 	-6.36538e-06 	-7.99845e-07 30.0003 	-6.36538e-06 	-7.99845e-07 30.0003 	-6.36538e-06 	-7.99845e-07 30.0001 	-3.27573e-06 	-1.11605e-06 30.0003 	-6.37845e-06 	-8.21578e-07 30.0003 	-6.37845e-06 	-8.21578e-07 30.0003 	-6.37845e-06 	-8.21578e-07 30.0003 	-6.37844e-06 	-8.21578e-07 30.0001 	-3.30385e-06 	-1.14153e-06 30.0003 	-6.39082e-06 	-8.42011e-07 30.0003 	-6.39082e-06 	-8.42011e-07 30.0003 	-6.39082e-06 	-8.42011e-07 30.0003 	-6.39082e-06 	-8.4201e-07 30.0001 	-1.8897e-07 	-1.36688e-06 30.0003 	-6.40246e-06 	-8.61407e-07 30.0003 	-6.40245e-06 	-8.61407e-07 30.0003 	-6.40245e-06 	-8.61406e-07 30.0003 	-6.40245e-06 	-8.61406e-07 30.0001 	-1.89359e-07 	-1.38875e-06 30.0003 	-6.41339e-06 	-8.79846e-07 30.0003 	-6.41338e-06 	-8.79846e-07 30.0003 	-6.41338e-06 	-8.79845e-07 30.0003 	-6.41338e-06 	-8.79845e-07 30.0001 	-1.89737e-07 	-1.4094e-06 30.0003 	-6.42363e-06 	-8.97335e-07 30.0003 	-6.42362e-06 	-8.97334e-07 30.0003 	-6.42362e-06 	-8.97334e-07 30.0003 	-6.42362e-06 	-8.97334e-07 30.0001 	-3.40819e-06 	-1.23053e-06 30.0003 	-6.43319e-06 	-9.13921e-07 30.0003 	-6.43319e-06 	-9.13921e-07 30.0003 	-6.43319e-06 	-9.13921e-07 30.0003 	-6.43318e-06 	-9.1392e-07 30.0001 	-3.43233e-06 	-1.24985e-06 30.0003 	-6.44218e-06 	-9.29605e-07 30.0003 	-6.44218e-06 	-9.29605e-07 30.0003 	-6.44217e-06 	-9.29605e-07 30.0003 	-6.44217e-06 	-9.29604e-07 30.0001 	-1.90876e-07 	-1.46457e-06 30.0003 	-6.45052e-06 	-9.44454e-07 30.0003 	-6.45051e-06 	-9.44453e-07 30.0003 	-6.45051e-06 	-9.44453e-07 30.0003 	-6.45051e-06 	-9.44453e-07 30.0001 	-3.47847e-06 	-1.28534e-06 30.0003 	-6.4582e-06 	-9.58462e-07 30.0003 	-6.4582e-06 	-9.58461e-07 30.0003 	-6.45819e-06 	-9.58461e-07 30.0003 	-6.45819e-06 	-9.58461e-07 30.0001 	-3.50053e-06 	-1.30161e-06 30.0003 	-6.46529e-06 	-9.71755e-07 30.0003 	-6.46529e-06 	-9.71755e-07 30.0003 	-6.46529e-06 	-9.71754e-07 30