# vtk DataFile Version 2.0
sampleSurface
ASCII
DATASET POLYDATA
POINTS 9879 float
6 2.24045e-22 1 6 -4.23516e-22 0 5 0 0 5 4.23516e-22
0.5 5 5.02844e-23 1 7 1.69508e-17 0 6 2.40786e-23 1
7 -4.23516e-22 1 8 -1.0754e-16 0 8 4.23516e-22 1 9
-7.28995e-17 0 9 4.23516e-22 1 10 5.03714e-17 0 10 -4.23516e-22
1 11 -1.10109e-16 0 11 0 1 12 1.14673e-16 0
12 0 1 13 1.07357e-16 0 13 -2.11758e-22 1 14
-3.31971e-17 0 14 0 1 15 0 1 15 5.68977e-17
0 -5 -1.61559e-27 0 -5 1.61559e-27 0 -5 0 0.5
-5 8.07794e-28 0.5 -2.89285 0 0 -3.00033 0 0 -3.00033
-8.47033e-22 0.0932873 -1.00051 -1.01779e-17 0.124742 -0.875522 0 0.124691 -0.875461 -8.40257e-19
0 -1.00046 0 0 0.015625 1.94517e-24 2.2091e-05 5.35603e-05 -1.21492e-24 0.0155233
0.0156432 3.30872e-24 0.0155555 1.00057 -5.42101e-19 0.0152422 1.00056 0 0.0308735 1.03181
0 0.0308728 1.03183 -1.89735e-19 0 1.00058 0 0 2 1.21939e-17
0.125 2 2.01948e-28 0.25 2.25 0 0.25 2.25 -1.26744e-17 0
2 2.01948e-28 0 3 2.86199e-17 0.25 3 3.16479e-17 0.5 3.5
2.01948e-28 0.5 3.5 -1.71188e-17 0 3 2.01948e-28 0 4 0
0 4 0 0 4 5.4967e-18 0.5 4 1.00974e-28 0.5
6 2.52435e-29 1 5 0 1 6 2.96289e-24 1 5
3.35588e-25 2 6 4.23516e-22 2 7 4.23516e-22 2 8 0
2 9 -4.23516e-22 2 10 0 2 11 2.11758e-22 2
12 0 2 13 -2.11758e-22 2 14 0 2 15
2.11758e-22 2 -5 0 1 -5 0 1.5 -5 0
1.5 -5 0 1 -1.00051 0 1.00028 -1.0005 1.69407e-21 1.07098
-0.875582 -3.38813e-21 1.04431 -0.875573 0 1.00033 -0.000176494 0 1.00043 -0.000187004
1.35525e-18 1.03171 0.0310738 0 1.03178 0.0310423 5.42101e-20 1.0005 0.0154335 0
1.00047 2.25 0 1 2 5.03191e-18 1 2 -8.15581e-18 1.125
2 6.36148e-18 1.25 2.25 0 1.25 3.5 0 1 3
-7.24998e-18 1 3 -1.28933e-17 1.25 3 -3.74554e-18 1.5 3.5 0
1.5 4 0 1 4 2.0972e-17 1.5 4.50019 3.38813e-21 1.50011
4.50001 3.17637e-22 1.0073 4 -1.00974e-28 1 5 -4.34409e-17 1.5 5
-2.52435e-29 2 5 1.60269e-22 2 5 4.23516e-22 2.5 5 0
3 6 -4.23516e-22 3 7 4.23516e-22 3 8 4.23516e-22 3
9 0 3 10 0 3 11 -2.11758e-22 3 12
2.11758e-22 3 13 -2.11758e-22 3 14 2.11758e-22 3 15 0
3 -5 0 2 -5 0 2 -5 0 2
-0.750281 -2.71051e-20 2.0005 -0.996618 -5.0822e-21 2.00034 -0.884887 3.38813e-21 2.25032 -0.750178
-2.73083e-17 2.25039 0.124965 6.77626e-21 2.00046 0.0589837 -3.38813e-21 2.00046 0.102874 -1.69407e-21
2.25032 0.249982 -1.24887e-17 2.25032 0.249997 1.35525e-20 2.00047 1.0005 1.35525e-20 2.00056
1.00037 1.35525e-20 2.25063 1.25045 -1.35525e-20 2.25054 1.25043 -1.69813e-17 2.00047 1.12546
-1.35525e-20 2.00051 2.00018 3.38813e-21 2.00013 2.00027 1.07133e-17 2.25026 2.25027 6.77626e-21
2.25023 2.25017 6.77626e-21 2.00011 3.5 0 2 3.00014 -1.11944e-17 2.00005
3.00014 2.41235e-17 2.25008 3.00001 2.0117e-21 2.49701 3.5 0 2 4
-1.32349e-23 2 4.00001 0 2.00871 4.5 -3.02248e-22 2.5 4.5 2.52435e-29
2.5 4.50017 2.11758e-22 2.00014 -5 0 4 -4.00035 0 4
-4.0004 -5.66496e-18 3.5 -4.00039 0 3 -4.5002 0 3 -5
-9.5459e-22 3 5 -8.47033e-22 3.5 5 2.1923e-22 4 5 1.90287e-22
4 6 4.23516e-22 4 7 0 4 8 0 4
9 4.23516e-22 4 10 0 4 11 2.11758e-22 4 12
2.11758e-22 4 13 0 4 14 2.11758e-22 4 15 0
4 -5 0 3 -5 0 4 -0.750077 -1.69407e-21 3.00019
-0.975165 6.35275e-22 3.00002 -0.50002 0 3.43551 -0.50014 0 3.00035 0.249985
0 3.00023 0.097637 1.69407e-21 3.00023 0.500042 3.38813e-21 3.26572 0.500014 0
3.00034 1.00005 -1.35525e-20 3.00048 1.00018 8.47033e-22 3.50026 1.50019 0 3.50023
1.50022 -1.55041e-17 3.00052 1.2501 0 3.00055 2.00039 0 3.00045 2.00025
6.77626e-21 3.50028 2.50024 -6.77626e-21 3.50026 2.50027 -2.15688e-17 3.00027 2.25034 0
3.00035 3.0002 -1.69407e-21 3.00018 3.00017 9.52404e-18 3.50018 3.50015 3.38813e-21 3.50016
3.50018 0 3.00016 4.00014 -6.90484e-17 3.50015 4.41401 8.47033e-22 3.50003 4.5
2.24255e-22 3 4.5 0 3 4.00015 0 3.00016 5 0
4 -5 -4.56216e-21 5 -4.00031 0 5 -3.00034 1.35525e-20 5.00001
-3.0004 2.50722e-18 4.5 -3.00052 0 4 -3.50051 -3.61446e-17 4 5
-5.3804e-23 4 4.5 0 4 4.01315 -1.98523e-22 4 6 -1.77009e-22
5 7 8.49641e-23 5 8 -2.44576e-22 5 9 -1.79481e-22 5
10 -8.26783e-24 5 11 3.71066e-23 5 12 7.40495e-23 5 13
-7.46022e-23 5 13 -3.57483e-23 5 14 -2.11758e-22 5 15 0
5 -5 1.00974e-28 5 0.5 0 4 0.499998 0 4
0.5 0 4 1 -1.61559e-27 4 1 -1.61559e-27 4 1.5
-5.24977e-23 4 1.5 0 4 2.00017 -3.38813e-21 4.00019 2 -4.13239e-17
4.5 2.5 0 4.5 2.50016 0 4.00018 3 0 4
3 2.76547e-17 4.5 3.5 -2.52435e-29 4.5 3.5 0 4 5
0 5 4 0 4 4 -3.3529e-17 4.5 4 1.26218e-29
5 6 3.15544e-30 5 7 0 5 8 0 5
9 3.9443e-31 5 10 0 5 11 -9.86076e-32 5 12
-4.93038e-32 5 13 1.2326e-32 5 -5 -1.50785e-21 6 -4.00028 0
6 -3 -2.11758e-22 6 -2 -2.11758e-22 5 -2.50019 3.01205e-17 5.00003
-2 0 6 -1 -2.35712e-17 5 -1.5 1.39417e-17 5 -1
8.47033e-22 6 -1.46255e-06 1.4195e-17 5 -0.500002 2.00704e-17 5 -4.41788e-07 4.23516e-22
6 1 1.75768e-17 5 0.499999 -4.03442e-18 5 1 0 6
2 -1.6111e-22 6 1.5 -2.46127e-23 5 14 -2.49584e-23 6 15
6.49997e-23 6 -5 0 6 2 -1.00974e-28 6 2 -6.34437e-17
5 1.5 4.03897e-28 5 3 5.04871e-29 6 3 -2.10964e-17 5
2.5 0 5 4 -1.26218e-29 6 3.5 2.52435e-29 5 5
-6.31089e-30 6 6 -3.15544e-30 6 7 1.57772e-30 6 8 7.88861e-31
6 9 -3.9443e-31 6 10 0 6 11 0 6
12 -2.46519e-32 6 13 1.2326e-32 6 14 0 6 15
-1.52652e-17 6 -5 -6.17313e-21 7 -4.00025 1.35525e-20 7 -3 6.2323e-23
7 -3 5.04871e-29 7 -3 1.09771e-22 7 -2 4.23516e-22 7
-1 -4.23516e-22 7 -6.20385e-08 0 7 1 0 7 2
0 7 -5 -2.52435e-29 7 -3 0 7 2 5.04871e-29
7 3 2.52435e-29 7 4 0 7 5 6.31089e-30 7
6 -3.15544e-30 7 7 0 7 8 3.9443e-31 7 9
0 7 10 -9.86076e-32 7 11 0 7 12 1.2326e-32
7 13 0 7 14 0 7 15 -1.08141e-17 7
-5 1.7064e-23 8 -4 0 8 -3 1.32733e-22 7 -3
0 8 -2 0 8 -1 -4.23516e-22 8 -4.65216e-09 0
8 1 0 8 2 0 8 -5 7.6473e-18 8
2 -2.52435e-29 8 3 0 8 4 0 8 5
-6.31089e-30 8 6 1.57772e-30 8 7 0 8 8 3.9443e-31
8 9 0 8 10 9.86076e-32 8 11 0 8
12 1.2326e-32 8 13 0 8 14 0 8 15
0 8 1.98072e-05 -1.47443e-18 0.0155232 -6.78597e-10 6.46235e-27 0 -0.015625 1.89557e-19
0 -0.015607 0 0.0155222 0.015625 6.46235e-27 0 0.984621 -2.64274e-19 1.00027
1.00023 6.77626e-21 1.00025 1.00022 0 0.984609 0.984609 0 0.984627 -0.875589
0 0.875281 -1.00051 0 0.875232 -0.000168606 -7.04731e-19 0.984785 -0.0157783 0
0.984748 -0.0157891 0 1.0004 0.984964 -4.87891e-19 0 0.984951 0 0.0152386
0.0154375 2.71051e-20 0.984823 0.500347 0 0 0.484697 -1.40946e-18 0 0.484699
-2.71051e-20 0.0154073 0.50035 2.71051e-20 0.0153902 6.85113e-05 -6.74075e-34 0.497067 0.00351742 0
0.497921 0.00351735 -6.16298e-33 0.497919 0.500935 -5.29396e-23 0.500103 0.500923 1.81265e-19 0.484474
0.485343 0 0.48448 0.485354 -5.29396e-23 0.500107 -1.0005 0 1.12529 -0.875598
0 1.12535 -0.847656 0 1.75035 -0.875511 -8.67701e-18 1.75034 -1.00046 8.00954e-18
1.75027 -1.00043 4.23516e-22 2.00034 -0.000137327 0 2.00046 -0.000174407 -6.77626e-21 1.87558
-0.125203 0 1.87555 -0.125185 -4.78404e-18 2.0005 1.00026 0 1.03153 0.969013
6.77626e-21 1.00028 0.969038 8.80914e-19 1.03156 0.0614109 0 1.87557 -0.0314004 0
1.00037 -0.0314207 0 1.03167 -0.750309 -7.75205e-18 1.87547 -0.750381 0 1.75039
0.124961 0 1.87556 1.00049 5.54298e-18 1.87554 0.875516 1.35525e-20 1.87556 0.875507
0 2.00058 -0.442444 -4.23516e-22 0.0622773 -0.437776 0 0.0622817 -0.437709 -2.11758e-22
0.0234443 -0.0040072 3.0527e-19 0.500638 -0.000168277 0 0.500646 -2.94017e-06 0 0.497049
-0.00322378 0 0.496279 -0.492468 -5.29396e-23 0.500175 -0.469803 -2.11758e-22 0.500181 -0.469837
0 0.468841 -0.501073 0 0.468827 -0.501061 2.64698e-23 0.480492 -0.000101869 -1.47052e-19
0.504366 -0.00397949 -2.01948e-28 0.504355 -0.501028 0 0.522018 -0.501022 0 0.531434
-0.469779 0 0.531436 0.00364412 0 0.500984 0.00375691 0 0.504522 0.485366
0 0.514811 0.485366 0 0.515734 0.500948 0 0.515729 0.500947 -1.65436e-24
0.515118 -0.500391 3.52366e-19 0.0622223 -0.437669 4.23516e-22 0 -0.500304 0 0
-0.501042 0 0.500173 -0.50037 -5.42101e-20 1.00067 -0.43782 0 1.00061 -0.437881
5.42101e-20 0.938131 -0.500433 0 0.93818 0.500963 -5.14996e-19 0.984633 0.485343 0
0.984612 0.485309 -1.35525e-20 1.00027 0.500901 2.71051e-20 1.00034 -2.0003 0 0
-2.00031 0 0.249984 -1.75035 -6.77626e-21 0.249978 -1.75034 -2.12097e-18 0 -1.12549
1.69407e-21 0.0567975 -1.12551 -3.38813e-21 0.124883 -1.1051 0 0.12486 -2.00053 -4.06576e-19
0.750021 -2.00052 0 1.00001 -1.75043 0 1 -1.75044 1.35525e-20 0.750004
1.03145 0 1.00022 1.03142 0 0.968935 1.0002 -6.77626e-21 0.968969 -1.12548
0 0 -1.12547 0 0.875178 -1.12544 0 1.00021 -0.562867 -4.63496e-18
0 -0.562923 0 0.0621015 -0.875622 1.40946e-18 0.499992 -0.875629 -1.40946e-18 0.43746
-0.875614 0 0.37493 -1.00058 -1.35525e-20 0.374847 -1.0006 -6.77626e-21 0.499982 -0.501071
0 0.459931 -0.501067 7.5513e-19 0.437262 -0.563478 0 0.437296 -0.563493 0
0.500081 1.875 7.07317e-18 0 1.875 0 0.125 2 -9.02096e-18 0.875
1.875 -1.00974e-28 0.875 1.875 0 1 -0.501021 2.64698e-23 0.532727 0.516516
0 0.515723 0.516516 -1.65436e-24 0.515322 -1.00059 3.04932e-18 0.625092 -0.875599 0
0.625021 -0.875605 0 0.562503 -0.563001 -5.42101e-20 0.938195 -0.562935 0 1.00068
-0.501004 6.60686e-20 0.562681 -0.563465 6.77626e-21 0.562645 0.515999 -2.71051e-20 0.0153741 0.515996
1.89735e-19 0 1.00002 0 0.499997 1.00004 6.91179e-19 0.484354 0.984415 3.38813e-21
0.484354 0.984397 0 0.499997 0.516504 -1.57919e-19 0.500096 0.516494 -4.23516e-22 0.484467
0.984397 0 0.515625 1.00002 0 0.515625 0.516455 3.25261e-19 1.00046 0.516567
-2.71051e-20 0.984687 -0.000486907 -2.11758e-22 0.751673 0.0150628 0 0.751704 0.0151069 -2.11758e-22
0.736039 -0.000466544 1.79846e-18 0.73608 0.250631 -1.05879e-22 0.499142 0.234996 0 0.4991
0.235042 0 0.51471 0.250685 1.77115e-18 0.514757 0.234396 1.59578e-18 0.751475 0.250021
2.64698e-23 0.751472 0.250098 0 0.735925 0.234416 0 0.735938 0.500674 0
1.03185 0.469677 2.71051e-20 1.00028 0.46947 -2.71051e-20 1.0318 -0.000487113 0 0.767278
0.0150573 0 0.767313 0.249988 1.48893e-23 0.985961 0.249988 0 0.985377 0.234363
0 0.98538 0.234363 8.27181e-25 1.00097 0.234889 9.09899e-24 1.00097 0.250006 2.3521e-18
0.76703 0.234384 0 0.767027 0.249988 -2.64698e-23 1.00096 0.250614 0 0.249941
0.237135 1.32349e-23 0.249938 0.250669 1.98523e-23 0.26291 0.484921 5.42101e-19 0.249634 0.484944
-5.42101e-20 0.265243 0.500584 0 0.265233 0.500562 5.42101e-20 0.249623 0.25266 0
[...]
POINT_DATA 9879
FIELD attributes 1
U 3 9879 float
24.6073 -0.00232419 0.52536 25 0 0 25 0 0 24.3522 -0.0341838
1.20754 24.0054 0.000671662 1.63166 25 0 0 24.6073 -0.00232419 0.52536
24.6133 -0.00365287 0.541134 25 0 0 24.6201 -0.00407461 0.537321 25
0 0 24.6246 -0.00432306 0.52944 25 0 0 24.629 -0.00453404
0.520491 25 0 0 24.634 -0.00467165 0.510882 25 0 0
24.6392 -0.00473662 0.500925 25 0 0 24.6439 -0.0047676 0.491036 25
0 0 24.6491 -0.00477812 0.480036 24.6521 -0.00477886 0.473905 24.8597 -0.00799436
0.196172 25 0 0 25 0 0 25 0 0
25 6.31694e-13 -8.77387e-11 25 0 0 25 0 0 25.0003
4.29337e-06 -0.000778914 25.2121 -0.000123019 -0.0846605 25.3154 -0.000554102 -0.12777 25 0
0 25 0 0 25.0037 -9.18342e-05 0.000226446 27.6334 -0.0625082 0.149383
27.5879 -0.0646657 0.159453 24.6663 -0.0681871 0.103062 24.7136 -0.0778641 0.232528 24.7095
-0.0733329 0.229719 25 0 0 25 0 0 24.8713 -0.0684498
0.75448 24.8681 -0.0865076 1.68039 24.8202 -0.0910201 1.60199 25 0 0
25 0 0 24.8738 -0.0854044 1.23235 24.318 -0.082686 2.84914 24.1368
-0.0316338 1.58925 25 0 0 25 0 0 25 0
0 25 0 0 24.2008 -0.0375614 1.48236 24.2008 -0.0375614 1.48236
24.6073 -0.00232419 0.52536 24.0054 0.000671665 1.63166 24.6073 -0.00232419 0.52536 24.8884
0.0124444 0.565187 24.8094 0.00502777 0.381448 24.7939 0.00531724 0.375851 24.7879 0.00554633
0.366682 24.7846 0.005652 0.360137 24.7821 0.00567922 0.355786 24.7802 0.00571096 0.352601
24.7786 0.00569432 0.350238 24.7772 0.0056462 0.3483 24.7756 0.00560848 0.347701 24.7746
0.00559505 0.348048 25 0 0 25 0 0 25 3.75194e-13
-7.00704e-11 25 5.65828e-13 -1.11898e-10 24.8218 0.00214803 -0.0939601 24.8209 0.00206197 -0.0747109
24.7461 0.00312456 -0.0829118 24.7425 0.00324334 -0.0992014 23.0991 0.0649074 2.06665 23.3032
0.0579144 1.87827 23.2899 0.0619775 2.06246 23.0819 0.0695407 2.27886 23.0722 0.0677436
2.18799 23.0235 0.0724211 6.9664 23.1611 0.107993 8.73087 23.646 0.17334 6.42293
24.1636 0.133815 3.98093 23.9312 0.111723 4.00224 23.64 0.0111915 2.35516 23.0825
0.00787618 5.3003 23.646 0.0827149 4.18808 24.4911 0.0607741 2.19601 24.412 0.0263166
1.56194 23.6671 0.00726264 2.26319 24.3422 0.0286885 1.54372 24.2956 0.0292165 1.53534
23.7096 0.00426919 2.19826 23.6671 0.00726263 2.26319 24.3566 0.0239292 1.31589 24.8884
0.0124444 0.565187 24.8884 0.0124444 0.565187 25.0232 0.00697799 0.297721 25.0225 0.00397049
0.165982 25.0183 0.002356 0.118663 25.0149 0.00278218 0.110217 25.0132 0.00299682 0.107444
25.0111 0.00315926 0.107006 25.0085 0.0032876 0.107691 25.0055 0.00339779 0.108985 25.0024
0.00342147 0.110727 24.9995 0.00340807 0.112637 24.997 0.00340331 0.115417 24.9958 0.00340495
0.117265 25 0 0 25 0 0 25 1.91935e-13 -2.75806e-11
24.8796 0.00112435 0.0557811 24.9073 0.000743095 0.0279171 24.92 0.000651653 0.0396481 24.9106
0.000776652 0.0512413 24.8114 0.00369017 0.27713 24.8142 0.0033873 0.253422 24.8771 0.00202363
0.18226 24.8787 0.00227315 0.208615 24.8221 0.00396186 0.305608 24.8842 0.00606611 0.463888
24.9162 0.00340106 0.312554 24.9279 0.0037349 0.336564 24.899 0.00673454 0.499782 24.89
0.00668327 0.497972 24.9133 0.00932458 0.612216 24.9483 0.00506046 0.409371 24.9557 0.00579434
0.437925 24.9245 0.0107394 0.66812 24.9522 0.0120094 0.62616 24.9518 0.0153919 0.730214
24.9718 0.00919508 0.484841 24.9862 0.0053411 0.330855 24.9522 0.0120094 0.62616 24.9418
0.0139436 0.623361 24.9431 0.0138102 0.618087 25.0237 0.00751474 0.327439 25.0237 0.00751474
0.327439 24.9277 0.0154218 0.63933 25 1.179e-13 5.85228e-12 24.9992 8.28469e-06 0.000413894
24.9989 9.95566e-06 0.000152843 24.9988 1.04238e-05 -0.000261098 24.9996 4.87028e-06 -0.000211078 25
1.60696e-13 -6.93254e-12 25.0216 0.0023409 0.105124 25.0217 0.00125832 0.0661355 25.0217 0.00125832
0.0661355 25.0257 0.00134251 0.0593641 25.0286 0.00145773 0.0600641 25.0299 0.00155053 0.0610001
25.03 0.00161121 0.0612828 25.0298 0.001652 0.0611119 25.0294 0.00168159 0.0609207 25.029
0.00170632 0.0608015 25.0287 0.00172548 0.0607932 25.0287 0.00173269 0.060805 25.0288 0.00173297
0.0607722 25 0 0 25 0 0 24.9592 0.000313921 0.0350051
24.9651 0.000244052 0.0259595 24.9734 0.000234418 0.0341707 24.9567 0.000380861 0.0458436 24.9512
0.000701842 0.0910447 24.9521 0.000618498 0.0802279 24.9675 0.000556285 0.0810779 24.9566 0.000764046
0.101864 24.9662 0.000946616 0.125722 24.9828 0.000463906 0.076187 24.9898 0.000542482 0.0866805
24.9771 0.00112969 0.143902 24.9704 0.00109529 0.141092 24.9864 0.001337 0.158596 24.9966
0.000638038 0.0946376 25.0027 0.00075369 0.100977 24.9939 0.00160251 0.166788 24.9891 0.00158311
0.171323 25.0028 0.0019645 0.174446 25.0089 0.000967435 0.1065 25.0149 0.00120495 0.109781
25.0129 0.00252854 0.182039 25.0188 0.00149832 0.109426 25.0201 0.00199425 0.110556 25.0221
0.00417145 0.183655 25.0221 0.00417145 0.183655 25.0196 0.00309314 0.18242 25.0217 0.00125832
0.0661355 25 6.43211e-14 6.85083e-12 24.9996 6.74492e-06 0.000720959 24.9988 1.51197e-05 0.00202793
24.9979 1.84215e-05 0.00229523 24.997 2.14635e-05 0.00192432 24.9983 1.40452e-05 0.000826217 25.0217
0.00125832 0.0661355 25.0201 0.00119389 0.0750607 25.0185 0.000822705 0.0711196 25.0242 0.000535601
0.0291524 25.0261 0.000666112 0.0279976 25.027 0.000766334 0.0265594 25.0276 0.000839636 0.0251997
25.028 0.000894981 0.0241387 25.0284 0.000935401 0.0234849 25.0287 0.000968737 0.0231707 25.029
0.000992284 0.0230707 25.029 0.000992284 0.0230707 25.0295 0.00100572 0.0231603 25.03 0.00101135
0.0232492 25 0 0 24.9881 0.00022332 0.0425752 24.9881 0.00022332 0.0425752
24.9881 0.00022332 0.0425752 24.9919 0.000275056 0.0510578 24.9919 0.000275056 0.0510578 24.9969
0.000318994 0.0578391 24.9969 0.000318995 0.0578391 25.002 0.000373593 0.0628684 25.0051 0.000233683
0.0422322 25.0089 0.000273192 0.0445223 25.0069 0.000433082 0.0666113 25.0115 0.000533029 0.0691159
25.0124 0.000323241 0.0458289 25.0154 0.00041399 0.0468768 25.0155 0.000665983 0.0707796 25.0212
0.000380708 0.0296455 25.0184 0.000812682 0.0710132 25.0176 0.000459174 0.0456002 25.0175 0.000289853
0.0308688 25.0242 0.000535601 0.0291524 25.0261 0.000666112 0.0279976 25.027 0.000766334 0.0265594
25.0276 0.000839636 0.0251997 25.028 0.000894981 0.0241387 25.0284 0.000935401 0.0234849 25.0287
0.000968737 0.0231707 25.029 0.000992284 0.0230707 25 2.64459e-14 2.96569e-12 24.9999 5.53532e-06
0.000622611 24.9997 1.17561e-05 0.0015587 24.9974 2.89605e-05 0.00483387 24.9979 2.17199e-05 0.0032197
24.9997 1.98848e-05 0.00318283 24.9964 5.00778e-05 0.00983431 24.9964 3.97959e-05 0.00720075 25.0002
3.06609e-05 0.00568085 24.9972 7.99116e-05 0.0169573 24.9959 6.67793e-05 0.0137077 25.0017 4.42266e-05
0.00880287 25.001 0.000115308 0.0241238 24.9981 0.000102528 0.0217517 25.0047 6.01168e-05 0.0117885
25.0087 7.85434e-05 0.0138909 25.0034 0.000141093 0.0284491 25.0291 0.000481934 0.0128875 25.0293
0.000487416 0.0129464 25 0 0 25.0087 7.85434e-05 0.0138909 25.0069 0.000153861
0.0290247 25.0034 0.000141093 0.0284491 25.013 0.000101748 0.0148951 25.0128 0.000208967 0.0313946
25.0099 0.000188257 0.0322438 25.0169 0.000135406 0.0150945 25.0153 0.000274617 0.0335593 25.0201
0.000184808 0.0149198 25.0227 0.000247182 0.0144144 25.0245 0.000310959 0.01367 25.0258 0.000361152
0.0130829 25.0268 0.000395285 0.012779 25.0275 0.000420181 0.0126546 25.028 0.000438721 0.012638
25.0284 0.000456142 0.0126913 25.0287 0.000471035 0.0127786 25.0291 0.000481934 0.0128875 25.0293
0.000487416 0.0129464 25 1.02489e-14 7.55026e-13 25.0001 4.76312e-06 0.000351919 25.0002 9.85506e-06
0.000834577 25.0002 9.85506e-06 0.000834577 25.0002 9.85506e-06 0.000834577 25.0006 1.60387e-05 0.00159534
25.0016 2.37569e-05 0.00268489 25.0033 3.31345e-05 0.00399871 25.0059 4.40888e-05 0.00525899 25.0093
5.65902e-05 0.00616021 25 0 0 25.0002 9.85506e-06 0.000834577 25.0093 5.65902e-05
0.00616021 25.0129 7.17736e-05 0.00658846 25.0164 9.17003e-05 0.00666771 25.0194 0.000117889 0.00652891
25.0218 0.00015023 0.00622926 25.0236 0.000183405 0.00589327 25.025 0.000211585 0.00561094 25.026
0.000233474 0.00537647 25.0267 0.00025149 0.00515628 25.0273 0.000266641 0.00496442 25.0277 0.000279758
0.00481771 25.0281 0.000290662 0.00471542 25.0285 0.000299627 0.00465373 25.0288 0.00030433 0.0046271
25 1.14608e-06 0 25.0001 4.5178e-06 0 25.0002 9.85506e-06 0.000834577 25.0003
9.26235e-06 0 25.0009 1.49056e-05 0 25.0019 2.18047e-05 0 25.0037 3.00953e-05
0 25.0062 3.97564e-05 0 25.0094 5.08098e-05 0 25 1.14608e-06 0
25.0094 5.08098e-05 0 25.0128 6.38627e-05 0 25.0162 8.03795e-05 0 25.0191
0.000101004 0 25.0214 0.00012547 0 25.0233 0.000150483 0 25.0247 0.00017262
0 25.0257 0.000190425 0 25.0265 0.000204837 0 25.0271 0.000216314 0
25.0276 0.000225517 0 25.028 0.00023271 0 25.0284 0.000238315 0 25.0287
0.000241377 0.00110759 27.6335 -0.0625035 0.149361 25 0 0 25 0
0 27.6726 -0.0602788 0.138857 25 0 0 24.1264 0.185281 5.42059
24.0242 0.185511 5.37882 23.7117 0.199373 5.60315 23.8519 0.197225 5.61868 24.7493
0.00348565 -0.15614 24.8367 0.00221133 -0.132917 22.9871 0.0685986 2.16714 23.0023 0.0661228
2.05537 23.0966 0.0630968 1.97627 25 0 0 24.6699 -0.0686864 0.103949
22.9756 0.0710652 2.27999 25 0 0 25 0 0 25.3828
-0.0895731 0.193322 25.332 -0.0892229 0.189558 22.1641 0.0553689 4.99476 22.6905 0.0554677
5.27248 22.6899 0.0554667 5.27262 23.4346 -0.20168 11.2529 23.53 -0.226039 10.8086
23.5796 -0.217297 10.9077 23.4825 -0.192024 11.3409 24.8202 0.00199612 -0.0599251 24.7528
0.00290718 -0.0529003 24.8513 0.00138268 0.039697 24.856 0.00131072 0.0342978 24.8817 0.000999488
0.0190853 24.9077 0.000737383 0.0274854 24.8167 0.00311859 0.232177 24.7745 0.00413535 0.282443
24.7793 0.00356296 0.233896 24.8143 0.00282276 0.20032 24.3092 0.159339 4.86707 24.1977
0.180062 5.34898 24.3433 0.154168 4.78522 24.7749 0.00443086 0.306316 23.1296 0.0603105
1.86007 23.3277 0.0539187 1.69809 24.8567 0.00137742 0.060886 24.8347 0.0016373 0.0585493
24.7754 0.00473963 0.330941 24.8634 0.00826882 0.57685 24.8518 0.00782428 0.553271 24.8715
0.00600933 0.459007 26.4755 -0.0111947 -0.228979 26.4968 -0.0114471 -0.230451 25.5634 -0.00431053
-0.0867473 22.6873 0.056067 4.46058 23.1855 0.0567662 4.74842 22.1532 0.0553669 4.989
21.6592 0.0550779 4.74576 24.4411 0.00872152 -1.30889 24.3481 0.00895023 -1.45232 24.5945
0.00646452 -1.55199 24.6642 0.0066155 -1.36123 24.5943 0.00736699 -1.32157 23.624 0.0504882
4.17129 23.0459 0.0489854 3.86169 24.3373 0.010116 -1.20327 24.2774 0.0107543 -1.18113
24.1383 0.0113867 -1.3225 23.7227 0.0573388 5.02998 24.2436 0.0519173 4.53136 23.4023
-0.162278 11.7 23.3972 -0.160411 11.7226 23.3514 -0.170114 11.6483 23.3546 -0.171348
11.6328 26.2102 -0.00804578 -0.210693 25 0 0 25 0 0
24.4763 0.00863501 -1.25464 24.2298 0.012967 0.0694509 24.0904 0.0164014 0.163397 23.9719
0.0188467 0.115937 24.1482 0.01468 0.0157209 24.0244 0.128042 4.76345 23.99 0.126624
4.73432 24.0171 0.120978 4.51753 24.0543 0.121606 4.5078 25 0 0
25.0164 7.2011e-05 -0.0121294 25.0277 0.000102814 -0.0209235 25 0 0 25.068
1.21756e-05 -0.0256363 25.1495 2.67434e-05 -0.0563676 25.1597 2.56245e-06 -0.0609884 24.996 0.000133583
-0.0250903 24.986 0.000159377 -0.0239063 24.9753 0.000270754 -0.0349008 24.991 0.000227131 -0.0390861
23.7042 0.191305 5.39624 22.5292 0.219254 5.76707 22.9173 0.213417 5.73658 25
0 0 24.8915 0.00144594 -0.108806 24.8757 0.0014487 -0.0836221 25 0
0 25.9754 -0.00553867 -0.18217 24.9729 0.00223705 -0.311291 25.0389 0.00179443 -0.322373
25.1072 0.00120478 -0.298361 25.0848 0.000809223 -0.200095 24.9995 0.00137489 -0.214634 24.7293
0.00605453 -1.36047 24.8951 0.00462485 -1.35851 24.9438 0.00473192 -1.01638 24.6587 0.00746663
-0.956044 25 0 0 24.841 -0.0693237 0.783781 23.0669 -0.0325866 10.2119
23.082 -0.0348828 10.7905 23.1744 0.135262 9.33482 24.2727 0.0108217 -1.17518 23.3095
-0.180258 11.576 23.3116 -0.181055 11.5655 24.9244 0.00183616 -0.202477 24.8605 0.00302774
-0.279984 24.9057 0.00279622 -0.309935 24.2991 0.0113821 -0.0496387 24.353 0.0101944 0.00522531
24.163 0.0123862 -1.03731 24.4311 0.00993996 -0.825345 25.2837 -0.0888279 0.185792 25
0 0 23.6728 -0.312846 7.63656 23.7815 -0.29693 7.15076 23.7505 -0.300881
7.24442 23.635 -0.31732 7.75042 23.3916 -0.211327 11.1662 23.4862 -0.23461 10.71
23.5096 -0.332889 8.28817 23.5442 -0.329505 8.18123 24.081 0.124586 4.573 24.0566
0.12979 4.79155 20.1286 0.100609 3.85171 20.0498 0.103618 4.13876 19.7512 0.101661
4.22422 19.8402 0.0988158 3.92474 25.7399 -0.0990887 13.3332 26.121 -0.097156 13.4749
26.0236 -0.0835647 14.0862 25.5866 -0.0838202 13.876 20.8762 0.14877 9.11094 21.1631
0.151845 9.34359 20.9699 0.14912 9.94907 20.5963 0.145656 9.66474 24.1098 0.10845
4.03517 23.9872 0.118767 4.44934 24.0495 0.106042 3.97835 20.409 0.101752 3.76662
20.3394 0.104888 4.03983 23.2988 0.103071 3.89299 23.2958 0.103282 3.90122 23.2494
0.101406 3.81251 23.3225 0.0967164 3.62964 23.3243 0.0967472 3.63137 21.3699 0.154206
8.81197 21.131 0.151137 8.59769 23.3778 0.097633 3.68124 26.628 -0.154082 4.78531
26.7588 -0.152385 4.7894 26.6138 -0.159869 5.14032 25.1168 -0.164449 4.05669 25.0505
-0.174263 4.40422 24.9964 -0.173743 4.33255 25.0629 -0.163891 3.99114 26.5914 -0.161304
5.21079 26.4576 -0.163045 5.19666 26.4827 -0.155769 4.7722 24.5348 0.0111175 0.562106
24.4625 0.013411 0.644274 24.4704 0.0121066 0.566154 24.5309 0.0103908 0.508265 24.6326
0.00559013 0.219272 24.63 0.00565816 0.22324 24.5274 0.00763872 0.256781 24.54 0.00727009
0.233645 24.5236 0.0124894 0.640119 24.4613 0.0147267 0.722952 24.6424 0.018649 1.01168
24.5985 0.0230032 1.18375 24.5711 0.0219922 1.13495 24.6131 0.0183973 0.992832 24.3073
0.0113581 0.109014 24.1972 0.014164 0.194813 24.6803 0.0043181 0.145615 24.5579 0.00674157
0.200875 24.6042 0.00565904 0.151961 29.5743 -0.106887 3.58735 29.3321 -0.103408 3.25355
29.4626 -0.0990666 3.02043 29.7258 -0.102325 3.33155 19.1446 0.00724668 -5.22433 19.216
0.00968323 -4.4946 18.5322 0.0107196 -4.34493 18.2778 0.00830201 -5.12554 28.4448 -0.0336854
-0.994982 28.7343 -0.0338816 -1.41038 29.3603 -0.0416056 -1.00987 28.9162 -0.0407513 -0.661682
25.9459 -0.00506836 -1.42769 25.9854 -0.00551948 -1.45322 26.0245 -0.0058869 -1.42396 19.8539
0.00888626 -4.504 19.9114 0.00637388 -5.169 27.9642 -0.0274917 -1.1989 28.1096 -0.0271968
-1.62657 20.2089 0.0975465 3.57977 19.9311 0.095943 3.64047 19.3162 0.0119253 -3.90611
18.7487 0.0129806 -3.72249 19.8521 0.0110945 -3.98146 29.1854 -0.107647 3.46975 29.407
-0.111324 3.82264 25.9066 -0.115037 12.7913 26.2582 -0.111985 12.8942 26.6109 -0.161051
5.21284 26.7792 -0.15212 4.79004 26.771 -0.158823 5.22015 25.4085 -0.101477 13.1706
25.5869 -0.118489 12.6616 17.127 0.0716141 3.94008 17.5036 0.0748471 3.95851 17.361
0.077345 4.30612 17.0211 0.0743133 4.27764 17.0525 0.0726641 4.11691 28.929 -0.0979729
13.3864 28.8641 -0.0985657 13.2778 28.0043 -0.0961549 13.153 28.4091 -0.0951909 13.4192
15.8482 0.0992797 6.8813 15.6107 0.0984062 6.76145 15.8167 0.096483 6.58216 16.0278
0.0973945 6.67707 25.2171 -0.0847481 13.6561 19.6693 0.204745 8.72597 19.6943 0.202373
8.77229 19.8482 0.185293 9.23993 19.6381 0.186643 9.11684 21.4924 0.155125 9.56765
21.2806 0.152553 10.1464 25.9311 -0.00453232 -0.890783 25.6832 -0.00209271 -1.14317 25.7805
-0.00317921 -1.3208 26.1891 -0.00743256 -1.30089 26.2746 -0.00822144 -1.101 22.1085 0.0524436
0.554303 21.8269 0.0589509 0.825499 21.5175 0.0577375 0.715222 21.848 0.0515799 0.420207
23.5961 0.0238684 -0.271031 23.5209 0.0227427 -0.544325 23.9208 0.0171971 -0.531649 23.9341
0.0178518 -0.33303 22.1786 0.0457015 0.177174 22.3909 0.0463907 0.3289 19.3398 0.122831
6.73075 19.7435 0.125738 6.50943 19.7836 0.129161 6.90499 19.3618 0.126195 7.1655
17.741 0.0994635 13.8834 18.3829 0.113699 15.0599 18.6927 0.134966 15.671 18.1367
0.125134 14.4202 15.6413 0.101168 7.09955 16.0759 0.100287 6.98167 15.8797 0.102141
7.21782 20.4805 0.0986231 3.50709 23.5945 0.0319432 0.691671 23.5122 0.0354757 0.821916
23.3648 0.0389319 0.859418 23.4607 0.0350242 0.714614 22.3577 0.0520102 0.647964 22.1161
0.058334 0.899159 29.1257 -0.101613 13.247 29.2124 -0.102679 13.2074 31.8152 -0.116778
6.82619 32.2045 -0.115463 7.4766 31.7405 -0.118743 7.83898 31.4028 -0.120516 7.18732
28.83 -0.14542 9.19563 28.7417 -0.149475 8.58429 29.0851 -0.145344 8.47896 29.1975
-0.141348 9.09673 23.4089 0.100199 3.79151 23.4098 0.100272 3.79463 23.3438 0.105098
3.98547 19.8941 0.218511 8.42704 20.0216 0.220522 8.44267 21.6202 0.157214 8.99393
28.8947 -0.0976165 13.476 28.5838 -0.0950668 13.6028 17.676 0.0747342 13.5458 18.1089
0.0868417 14.3786 15.3738 0.100363 6.93925 19.1873 -0.118868 9.09292 19.1873 -0.118868
9.09292 22.6067 -0.118832 10.727 24.3687 -0.114362 11.3397 23.6292 -0.118268 10.9142
31.1993 0.0772438 14.3692 30.7367 0.0802334 14.8838 29.8501 0.0756329 14.2848 30.7362
0.0756225 14.0739 17.377 0.0880736 13.078 17.6107 0.112147 13.3512 20.8324 0.198885
9.13169 20.0484 0.201886 9.28461 20.1785 0.197359 9.34774 21.1002 0.191078 9.26081
22.4474 0.0360402 12.8539 21.9489 0.0346557 12.8051 20.5033 0.0610085 11.9096 21.355
0.0569417 12.2005 19.1873 -0.118868 9.09291 17.9283 0.148882 10.5107 16.834 0.156558
9.91064 15.2622 0.160487 9.68397 15.4159 0.154963 9.62188 17.87 0.124582 9.8885
18.0314 0.126348 10.3389 17.5441 0.124614 10.616 17.3971 0.122745 10.086 25
0 0 25 0 0 26.5302 -0.0861671 0.228835 26.4444 -0.0870474
0.228569 26.6381 -0.146991 4.37799 26.7675 -0.145418 4.38032 25.3739 -0.00450052 -0.00769452
25.9559 -0.0123318 -0.00628953 25 0 0 25 0 0 29.1204
-0.0998179 2.94799 29.2331 -0.0956968 2.73597 28.2027 -0.0331416 -0.694475 28.5651 -0.0395679
-0.420831 28.992 -0.103842 3.14588 26.7817 -0.145246 4.38057 27.4438 -0.0294119 -0.0502846
27.5778 -0.0332563 -0.0169615 25.0486 -0.000545719 -0.00166438 25 0 0 26.41
-0.00983151 -0.758455 26.4117 -0.00985176 -0.754141 26.0816 -0.00615961 -0.650684 26.0811 -0.00615459
-0.651424 27.8258 -0.0274557 -0.876923 17.6648 0.072573 3.58397 17.1502 0.0701093 3.73775
17.257 0.0691163 3.52096 16.8677 0.0385628 1.25244 16.8838 0.036854 1.06461 17.043
0.0375563 1.05091 17.0268 0.039077 1.22357 18.8533 0.0547876 1.35993 19.1183 0.0582117
1.46471 18.9193 0.0602923 1.71791 18.6529 0.0567559 1.60823 18.9169 -0.119684 8.85566
23.1212 -0.120734 10.5981 27.2852 -0.0256807 -0.0783101 23.5601 0.0314556 0.58498 23.6793
0.0287836 0.57517 23.9886 0.0174476 -0.17666 23.7142 0.0231047 -0.0883543 22.5985 0.0460965
0.433779 18.9169 -0.119684 8.85566 17.8752 0.0783278 3.99713 17.7245 0.0807187 4.34273
19.7376 0.122412 6.12988 19.3559 0.119634 6.31604 16.2395 0.0984471 6.76122 20.139
0.139176 8.12044 20.3488 0.142368 8.49289 19.9712 0.139317 8.97735 19.7269 0.136128
8.54884 18.8098 0.150693 10.5964 19.5231 0.144755 11.0996 18.2669 0.126482 9.67869
18.4245 0.128115 10.0527 20.1132 0.127779 6.27032 20.1625 0.131277 6.63185 22.4424
0.138814 5.74033 22.5396 0.141531 5.87994 22.404 0.146191 6.23219 22.2955 0.143366
6.08331 21.7661 0.121758 4.75534 21.9674 0.118537 4.51365 22.007 0.121548 4.70678
21.8096 0.125026 4.96525 28.9928 -0.100314 13.2755 26.4242 -0.186776 8.7915 26.6681
-0.181951 8.82761 26.6353 -0.178118 9.4076 26.3776 -0.1833 9.36638 28.4075 -0.153599
8.67986 28.475 -0.149567 9.28575 17.5815 0.0666987 13.0676 23.8961 -0.108898 12.3977
24.0299 -0.13433 12.0542 24.1558 -0.127848 12.1873 24.0099 -0.103863 12.5352 22.9721
0.0204576 13.1279 22.7724 0.0176382 13.2335 17.3714 0.107784 7.22349 17.9027 0.111498
7.18739 17.797 0.114682 7.74475 17.477 0.113058 7.83881 17.1672 0.111215 7.79851
17.2195 0.10922 7.50288 17.7637 0.122894 9.45218 17.3188 0.121038 9.59661 25.6985
-0.110798 11.6594 26.438 -0.106744 12.0738 29.0308 -0.126949 11.1179 29.4408 -0.124202
11.0522 29.4494 -0.116911 11.689 29.0318 -0.119134 11.7512 30.8709 -0.117047 10.7526
30.9519 -0.113701 11.1408 30.6619 -0.114878 11.1842 30.6177 -0.117852 10.8675 23.8586
-0.0407282 15.0267 23.6139 -0.0388112 15.078 21.5084 -0.0112075 14.6525 22.0739 -0.0180776
14.6818 22.5218 -0.00995701 14.1105 22.593 0.0200885 14.6241 21.947 0.00616069 14.4179
22.4497 -0.0170327 14.296 26.5537 -0.0950343 12.557 27.7805 -0.0956356 12.9263 27.4855
-0.0950638 12.9141 25.8345 -0.0964983 12.4219 31.4245 0.0573249 9.62027 31.3663 0.0581397