# vtk DataFile Version 2.0
sampleSurface
ASCII
DATASET POLYDATA
POINTS 9879 float
6 2.24045e-22 1 6 -4.23516e-22 0 5 0 0 5 4.23516e-22
0.5 5 5.02844e-23 1 7 1.69508e-17 0 6 2.40786e-23 1
7 -4.23516e-22 1 8 -1.0754e-16 0 8 4.23516e-22 1 9
-7.28995e-17 0 9 4.23516e-22 1 10 5.03714e-17 0 10 -4.23516e-22
1 11 -1.10109e-16 0 11 0 1 12 1.14673e-16 0
12 0 1 13 1.07357e-16 0 13 -2.11758e-22 1 14
-3.31971e-17 0 14 0 1 15 0 1 15 5.68977e-17
0 -5 -1.61559e-27 0 -5 1.61559e-27 0 -5 0 0.5
-5 8.07794e-28 0.5 -2.89285 0 0 -3.00033 0 0 -3.00033
-8.47033e-22 0.0932873 -1.00051 -1.01779e-17 0.124742 -0.875522 0 0.124691 -0.875461 -8.40257e-19
0 -1.00046 0 0 0.015625 1.94517e-24 2.2091e-05 5.35603e-05 -1.21492e-24 0.0155233
0.0156432 3.30872e-24 0.0155555 1.00057 -5.42101e-19 0.0152422 1.00056 0 0.0308735 1.03181
0 0.0308728 1.03183 -1.89735e-19 0 1.00058 0 0 2 1.21939e-17
0.125 2 2.01948e-28 0.25 2.25 0 0.25 2.25 -1.26744e-17 0
2 2.01948e-28 0 3 2.86199e-17 0.25 3 3.16479e-17 0.5 3.5
2.01948e-28 0.5 3.5 -1.71188e-17 0 3 2.01948e-28 0 4 0
0 4 0 0 4 5.4967e-18 0.5 4 1.00974e-28 0.5
6 2.52435e-29 1 5 0 1 6 2.96289e-24 1 5
3.35588e-25 2 6 4.23516e-22 2 7 4.23516e-22 2 8 0
2 9 -4.23516e-22 2 10 0 2 11 2.11758e-22 2
12 0 2 13 -2.11758e-22 2 14 0 2 15
2.11758e-22 2 -5 0 1 -5 0 1.5 -5 0
1.5 -5 0 1 -1.00051 0 1.00028 -1.0005 1.69407e-21 1.07098
-0.875582 -3.38813e-21 1.04431 -0.875573 0 1.00033 -0.000176494 0 1.00043 -0.000187004
1.35525e-18 1.03171 0.0310738 0 1.03178 0.0310423 5.42101e-20 1.0005 0.0154335 0
1.00047 2.25 0 1 2 5.03191e-18 1 2 -8.15581e-18 1.125
2 6.36148e-18 1.25 2.25 0 1.25 3.5 0 1 3
-7.24998e-18 1 3 -1.28933e-17 1.25 3 -3.74554e-18 1.5 3.5 0
1.5 4 0 1 4 2.0972e-17 1.5 4.50019 3.38813e-21 1.50011
4.50001 3.17637e-22 1.0073 4 -1.00974e-28 1 5 -4.34409e-17 1.5 5
-2.52435e-29 2 5 1.60269e-22 2 5 4.23516e-22 2.5 5 0
3 6 -4.23516e-22 3 7 4.23516e-22 3 8 4.23516e-22 3
9 0 3 10 0 3 11 -2.11758e-22 3 12
2.11758e-22 3 13 -2.11758e-22 3 14 2.11758e-22 3 15 0
3 -5 0 2 -5 0 2 -5 0 2
-0.750281 -2.71051e-20 2.0005 -0.996618 -5.0822e-21 2.00034 -0.884887 3.38813e-21 2.25032 -0.750178
-2.73083e-17 2.25039 0.124965 6.77626e-21 2.00046 0.0589837 -3.38813e-21 2.00046 0.102874 -1.69407e-21
2.25032 0.249982 -1.24887e-17 2.25032 0.249997 1.35525e-20 2.00047 1.0005 1.35525e-20 2.00056
1.00037 1.35525e-20 2.25063 1.25045 -1.35525e-20 2.25054 1.25043 -1.69813e-17 2.00047 1.12546
-1.35525e-20 2.00051 2.00018 3.38813e-21 2.00013 2.00027 1.07133e-17 2.25026 2.25027 6.77626e-21
2.25023 2.25017 6.77626e-21 2.00011 3.5 0 2 3.00014 -1.11944e-17 2.00005
3.00014 2.41235e-17 2.25008 3.00001 2.0117e-21 2.49701 3.5 0 2 4
-1.32349e-23 2 4.00001 0 2.00871 4.5 -3.02248e-22 2.5 4.5 2.52435e-29
2.5 4.50017 2.11758e-22 2.00014 -5 0 4 -4.00035 0 4
-4.0004 -5.66496e-18 3.5 -4.00039 0 3 -4.5002 0 3 -5
-9.5459e-22 3 5 -8.47033e-22 3.5 5 2.1923e-22 4 5 1.90287e-22
4 6 4.23516e-22 4 7 0 4 8 0 4
9 4.23516e-22 4 10 0 4 11 2.11758e-22 4 12
2.11758e-22 4 13 0 4 14 2.11758e-22 4 15 0
4 -5 0 3 -5 0 4 -0.750077 -1.69407e-21 3.00019
-0.975165 6.35275e-22 3.00002 -0.50002 0 3.43551 -0.50014 0 3.00035 0.249985
0 3.00023 0.097637 1.69407e-21 3.00023 0.500042 3.38813e-21 3.26572 0.500014 0
3.00034 1.00005 -1.35525e-20 3.00048 1.00018 8.47033e-22 3.50026 1.50019 0 3.50023
1.50022 -1.55041e-17 3.00052 1.2501 0 3.00055 2.00039 0 3.00045 2.00025
6.77626e-21 3.50028 2.50024 -6.77626e-21 3.50026 2.50027 -2.15688e-17 3.00027 2.25034 0
3.00035 3.0002 -1.69407e-21 3.00018 3.00017 9.52404e-18 3.50018 3.50015 3.38813e-21 3.50016
3.50018 0 3.00016 4.00014 -6.90484e-17 3.50015 4.41401 8.47033e-22 3.50003 4.5
2.24255e-22 3 4.5 0 3 4.00015 0 3.00016 5 0
4 -5 -4.56216e-21 5 -4.00031 0 5 -3.00034 1.35525e-20 5.00001
-3.0004 2.50722e-18 4.5 -3.00052 0 4 -3.50051 -3.61446e-17 4 5
-5.3804e-23 4 4.5 0 4 4.01315 -1.98523e-22 4 6 -1.77009e-22
5 7 8.49641e-23 5 8 -2.44576e-22 5 9 -1.79481e-22 5
10 -8.26783e-24 5 11 3.71066e-23 5 12 7.40495e-23 5 13
-7.46022e-23 5 13 -3.57483e-23 5 14 -2.11758e-22 5 15 0
5 -5 1.00974e-28 5 0.5 0 4 0.499998 0 4
0.5 0 4 1 -1.61559e-27 4 1 -1.61559e-27 4 1.5
-5.24977e-23 4 1.5 0 4 2.00017 -3.38813e-21 4.00019 2 -4.13239e-17
4.5 2.5 0 4.5 2.50016 0 4.00018 3 0 4
3 2.76547e-17 4.5 3.5 -2.52435e-29 4.5 3.5 0 4 5
0 5 4 0 4 4 -3.3529e-17 4.5 4 1.26218e-29
5 6 3.15544e-30 5 7 0 5 8 0 5
9 3.9443e-31 5 10 0 5 11 -9.86076e-32 5 12
-4.93038e-32 5 13 1.2326e-32 5 -5 -1.50785e-21 6 -4.00028 0
6 -3 -2.11758e-22 6 -2 -2.11758e-22 5 -2.50019 3.01205e-17 5.00003
-2 0 6 -1 -2.35712e-17 5 -1.5 1.39417e-17 5 -1
8.47033e-22 6 -1.46255e-06 1.4195e-17 5 -0.500002 2.00704e-17 5 -4.41788e-07 4.23516e-22
6 1 1.75768e-17 5 0.499999 -4.03442e-18 5 1 0 6
2 -1.6111e-22 6 1.5 -2.46127e-23 5 14 -2.49584e-23 6 15
6.49997e-23 6 -5 0 6 2 -1.00974e-28 6 2 -6.34437e-17
5 1.5 4.03897e-28 5 3 5.04871e-29 6 3 -2.10964e-17 5
2.5 0 5 4 -1.26218e-29 6 3.5 2.52435e-29 5 5
-6.31089e-30 6 6 -3.15544e-30 6 7 1.57772e-30 6 8 7.88861e-31
6 9 -3.9443e-31 6 10 0 6 11 0 6
12 -2.46519e-32 6 13 1.2326e-32 6 14 0 6 15
-1.52652e-17 6 -5 -6.17313e-21 7 -4.00025 1.35525e-20 7 -3 6.2323e-23
7 -3 5.04871e-29 7 -3 1.09771e-22 7 -2 4.23516e-22 7
-1 -4.23516e-22 7 -6.20385e-08 0 7 1 0 7 2
0 7 -5 -2.52435e-29 7 -3 0 7 2 5.04871e-29
7 3 2.52435e-29 7 4 0 7 5 6.31089e-30 7
6 -3.15544e-30 7 7 0 7 8 3.9443e-31 7 9
0 7 10 -9.86076e-32 7 11 0 7 12 1.2326e-32
7 13 0 7 14 0 7 15 -1.08141e-17 7
-5 1.7064e-23 8 -4 0 8 -3 1.32733e-22 7 -3
0 8 -2 0 8 -1 -4.23516e-22 8 -4.65216e-09 0
8 1 0 8 2 0 8 -5 7.6473e-18 8
2 -2.52435e-29 8 3 0 8 4 0 8 5
-6.31089e-30 8 6 1.57772e-30 8 7 0 8 8 3.9443e-31
8 9 0 8 10 9.86076e-32 8 11 0 8
12 1.2326e-32 8 13 0 8 14 0 8 15
0 8 1.98072e-05 -1.47443e-18 0.0155232 -6.78597e-10 6.46235e-27 0 -0.015625 1.89557e-19
0 -0.015607 0 0.0155222 0.015625 6.46235e-27 0 0.984621 -2.64274e-19 1.00027
1.00023 6.77626e-21 1.00025 1.00022 0 0.984609 0.984609 0 0.984627 -0.875589
0 0.875281 -1.00051 0 0.875232 -0.000168606 -7.04731e-19 0.984785 -0.0157783 0
0.984748 -0.0157891 0 1.0004 0.984964 -4.87891e-19 0 0.984951 0 0.0152386
0.0154375 2.71051e-20 0.984823 0.500347 0 0 0.484697 -1.40946e-18 0 0.484699
-2.71051e-20 0.0154073 0.50035 2.71051e-20 0.0153902 6.85113e-05 -6.74075e-34 0.497067 0.00351742 0
0.497921 0.00351735 -6.16298e-33 0.497919 0.500935 -5.29396e-23 0.500103 0.500923 1.81265e-19 0.484474
0.485343 0 0.48448 0.485354 -5.29396e-23 0.500107 -1.0005 0 1.12529 -0.875598
0 1.12535 -0.847656 0 1.75035 -0.875511 -8.67701e-18 1.75034 -1.00046 8.00954e-18
1.75027 -1.00043 4.23516e-22 2.00034 -0.000137327 0 2.00046 -0.000174407 -6.77626e-21 1.87558
-0.125203 0 1.87555 -0.125185 -4.78404e-18 2.0005 1.00026 0 1.03153 0.969013
6.77626e-21 1.00028 0.969038 8.80914e-19 1.03156 0.0614109 0 1.87557 -0.0314004 0
1.00037 -0.0314207 0 1.03167 -0.750309 -7.75205e-18 1.87547 -0.750381 0 1.75039
0.124961 0 1.87556 1.00049 5.54298e-18 1.87554 0.875516 1.35525e-20 1.87556 0.875507
0 2.00058 -0.442444 -4.23516e-22 0.0622773 -0.437776 0 0.0622817 -0.437709 -2.11758e-22
0.0234443 -0.0040072 3.0527e-19 0.500638 -0.000168277 0 0.500646 -2.94017e-06 0 0.497049
-0.00322378 0 0.496279 -0.492468 -5.29396e-23 0.500175 -0.469803 -2.11758e-22 0.500181 -0.469837
0 0.468841 -0.501073 0 0.468827 -0.501061 2.64698e-23 0.480492 -0.000101869 -1.47052e-19
0.504366 -0.00397949 -2.01948e-28 0.504355 -0.501028 0 0.522018 -0.501022 0 0.531434
-0.469779 0 0.531436 0.00364412 0 0.500984 0.00375691 0 0.504522 0.485366
0 0.514811 0.485366 0 0.515734 0.500948 0 0.515729 0.500947 -1.65436e-24
0.515118 -0.500391 3.52366e-19 0.0622223 -0.437669 4.23516e-22 0 -0.500304 0 0
-0.501042 0 0.500173 -0.50037 -5.42101e-20 1.00067 -0.43782 0 1.00061 -0.437881
5.42101e-20 0.938131 -0.500433 0 0.93818 0.500963 -5.14996e-19 0.984633 0.485343 0
0.984612 0.485309 -1.35525e-20 1.00027 0.500901 2.71051e-20 1.00034 -2.0003 0 0
-2.00031 0 0.249984 -1.75035 -6.77626e-21 0.249978 -1.75034 -2.12097e-18 0 -1.12549
1.69407e-21 0.0567975 -1.12551 -3.38813e-21 0.124883 -1.1051 0 0.12486 -2.00053 -4.06576e-19
0.750021 -2.00052 0 1.00001 -1.75043 0 1 -1.75044 1.35525e-20 0.750004
1.03145 0 1.00022 1.03142 0 0.968935 1.0002 -6.77626e-21 0.968969 -1.12548
0 0 -1.12547 0 0.875178 -1.12544 0 1.00021 -0.562867 -4.63496e-18
0 -0.562923 0 0.0621015 -0.875622 1.40946e-18 0.499992 -0.875629 -1.40946e-18 0.43746
-0.875614 0 0.37493 -1.00058 -1.35525e-20 0.374847 -1.0006 -6.77626e-21 0.499982 -0.501071
0 0.459931 -0.501067 7.5513e-19 0.437262 -0.563478 0 0.437296 -0.563493 0
0.500081 1.875 7.07317e-18 0 1.875 0 0.125 2 -9.02096e-18 0.875
1.875 -1.00974e-28 0.875 1.875 0 1 -0.501021 2.64698e-23 0.532727 0.516516
0 0.515723 0.516516 -1.65436e-24 0.515322 -1.00059 3.04932e-18 0.625092 -0.875599 0
0.625021 -0.875605 0 0.562503 -0.563001 -5.42101e-20 0.938195 -0.562935 0 1.00068
-0.501004 6.60686e-20 0.562681 -0.563465 6.77626e-21 0.562645 0.515999 -2.71051e-20 0.0153741 0.515996
1.89735e-19 0 1.00002 0 0.499997 1.00004 6.91179e-19 0.484354 0.984415 3.38813e-21
0.484354 0.984397 0 0.499997 0.516504 -1.57919e-19 0.500096 0.516494 -4.23516e-22 0.484467
0.984397 0 0.515625 1.00002 0 0.515625 0.516455 3.25261e-19 1.00046 0.516567
-2.71051e-20 0.984687 -0.000486907 -2.11758e-22 0.751673 0.0150628 0 0.751704 0.0151069 -2.11758e-22
0.736039 -0.000466544 1.79846e-18 0.73608 0.250631 -1.05879e-22 0.499142 0.234996 0 0.4991
0.235042 0 0.51471 0.250685 1.77115e-18 0.514757 0.234396 1.59578e-18 0.751475 0.250021
2.64698e-23 0.751472 0.250098 0 0.735925 0.234416 0 0.735938 0.500674 0
1.03185 0.469677 2.71051e-20 1.00028 0.46947 -2.71051e-20 1.0318 -0.000487113 0 0.767278
0.0150573 0 0.767313 0.249988 1.48893e-23 0.985961 0.249988 0 0.985377 0.234363
0 0.98538 0.234363 8.27181e-25 1.00097 0.234889 9.09899e-24 1.00097 0.250006 2.3521e-18
0.76703 0.234384 0 0.767027 0.249988 -2.64698e-23 1.00096 0.250614 0 0.249941
0.237135 1.32349e-23 0.249938 0.250669 1.98523e-23 0.26291 0.484921 5.42101e-19 0.249634 0.484944
-5.42101e-20 0.265243 0.500584 0 0.265233 0.500562 5.42101e-20 0.249623 0.25266 0
[...]
POINT_DATA 9879
FIELD attributes 1
U 3 9879 float
24.6066 -0.00244955 0.525276 25 0 0 25 0 0 24.3534 -0.034284
1.20783 24.0069 0.000167122 1.62964 25 0 0 24.6066 -0.00244955 0.525276
24.6128 -0.00378092 0.540708 25 0 0 24.6197 -0.00419588 0.536662 25
0 0 24.6243 -0.00443786 0.528599 25 0 0 24.6288 -0.00463698
0.519493 25 0 0 24.6339 -0.00475804 0.509739 25 0 0
24.6392 -0.00481017 0.499643 25 0 0 24.6441 -0.00483923 0.489622 25
0 0 24.6494 -0.00484152 0.478524 24.6524 -0.00483166 0.472359 24.8596 -0.00793335
0.196134 25 0 0 25 0 0 25 0 0
25 6.77186e-13 -8.75825e-11 25 0 0 25 0 0 25.0003
4.75653e-06 -0.000777447 25.2114 -8.74257e-05 -0.084636 25.3146 -0.000492175 -0.127777 25 0
0 25 0 0 25.0037 -9.20865e-05 0.000226252 27.6328 -0.0625308 0.149252
27.5874 -0.0648433 0.159317 24.6679 -0.0679702 0.103186 24.7154 -0.0777281 0.232858 24.711
-0.0731685 0.230038 25 0 0 25 0 0 24.871 -0.0680055
0.753382 24.8672 -0.0858827 1.67783 24.8204 -0.0902894 1.59726 25 0 0
25 0 0 24.8752 -0.0849196 1.22845 24.3193 -0.0826634 2.84406 24.1388
-0.0318813 1.59155 25 0 0 25 0 0 25 0
0 25 0 0 24.2027 -0.0378755 1.48333 24.2027 -0.0378755 1.48333
24.6066 -0.00244955 0.525276 24.0069 0.000167125 1.62964 24.6066 -0.00244955 0.525276 24.8871
0.0125342 0.566208 24.8086 0.00499068 0.381245 24.7933 0.00527006 0.375569 24.7874 0.00549457
0.366357 24.7841 0.00559763 0.359774 24.7817 0.00562312 0.355363 24.7799 0.0056458 0.35212
24.7784 0.00562132 0.349692 24.7771 0.00556106 0.347671 24.7756 0.00552 0.346988 24.7746
0.00551332 0.347295 25 0 0 25 0 0 25 3.99937e-13
-6.98995e-11 25 6.03883e-13 -1.11677e-10 24.8215 0.0021768 -0.0936442 24.8207 0.0020902 -0.07441
24.7459 0.00316472 -0.0824834 24.7423 0.00328443 -0.098745 23.0986 0.0648105 2.06363 23.3027
0.0578776 1.87562 23.2892 0.0619807 2.05989 23.0812 0.0694972 2.27583 23.0715 0.067664
2.18498 23.0172 0.0718911 6.94409 23.1441 0.109783 8.71015 23.6359 0.177861 6.41732
24.1615 0.136999 3.99234 23.9279 0.112969 4.00018 23.6389 0.0104771 2.35639 23.0829
0.00731789 5.2774 23.6442 0.0828541 4.17112 24.4894 0.0613723 2.19355 24.4086 0.0260698
1.56147 23.6672 0.00636392 2.26206 24.3395 0.0282738 1.54263 24.2942 0.0287403 1.53366
23.7113 0.00349014 2.1958 23.6672 0.00636391 2.26206 24.3558 0.0235299 1.31431 24.8871
0.0125342 0.566208 24.8871 0.0125342 0.566208 25.0231 0.00709474 0.298084 25.0225 0.0040176
0.166149 25.0183 0.00242148 0.118885 25.0148 0.00285313 0.110536 25.0131 0.00306918 0.107803
25.011 0.00323591 0.107413 25.0083 0.00336374 0.10813 25.0052 0.00346131 0.109464 25.0022
0.0034777 0.111248 24.9992 0.00346301 0.11319 24.9966 0.00345816 0.116003 24.9954 0.00346144
0.117873 25 0 0 25 0 0 25 2.05019e-13 -2.74879e-11
24.8796 0.00114552 0.0558848 24.9072 0.000760067 0.0280207 24.92 0.000667771 0.0397323 24.9106
0.000794889 0.0513239 24.8113 0.00372707 0.277224 24.8141 0.00342197 0.253506 24.877 0.00205821
0.182367 24.8786 0.00231211 0.20874 24.8219 0.00400435 0.305742 24.8839 0.0061343 0.464521
24.916 0.00345707 0.312966 24.9278 0.00379043 0.337086 24.8988 0.00679983 0.500615 24.8897
0.00675125 0.498733 24.9136 0.00938492 0.613187 24.9484 0.00509341 0.409969 24.956 0.0058311
0.438406 24.925 0.0107744 0.66875 24.9519 0.0121445 0.627013 24.9521 0.01552 0.730101
24.9721 0.0092433 0.484919 24.9864 0.00537689 0.330996 24.9519 0.0121445 0.627012 24.9411
0.0140691 0.62458 24.9425 0.013935 0.619291 25.0236 0.00762486 0.327814 25.0236 0.00762486
0.327814 24.9266 0.0155538 0.640785 25 1.33269e-13 5.91299e-12 24.9992 9.37164e-06 0.000418188
24.9989 1.11843e-05 0.00015834 24.9988 1.17354e-05 -0.000255343 24.9996 5.20954e-06 -0.000208913 25
1.7184e-13 -6.86141e-12 25.0216 0.00237184 0.105217 25.0217 0.00128163 0.0661799 25.0217 0.00128163
0.0661799 25.0257 0.00136841 0.0593931 25.0286 0.00148571 0.0600673 25.0299 0.00157941 0.0609795
25.0301 0.00164125 0.0612479 25.0298 0.00168269 0.0610674 25.0294 0.00171357 0.0608705 25.029
0.0017401 0.0607501 25.0287 0.00176068 0.0607465 25.0287 0.00176836 0.0607657 25.0288 0.00176799
0.0607386 25 0 0 25 0 0 24.9592 0.000327065 0.0350651
24.9651 0.000255303 0.0260156 24.9734 0.000248152 0.0342194 24.9566 0.000396211 0.0459052 24.9512
0.000725351 0.0911321 24.9521 0.000640131 0.0803069 24.9675 0.000579907 0.0811673 24.9565 0.000790208
0.101972 24.9662 0.000976565 0.125889 24.9828 0.000488193 0.076282 24.9898 0.00056776 0.0867903
24.9772 0.00115953 0.144113 24.9704 0.00112599 0.141293 24.9865 0.0013629 0.158808 24.9967
0.000662688 0.0947472 25.0028 0.000777018 0.101068 24.994 0.00162597 0.166955 24.9892 0.00160676
0.171527 25.0029 0.00198916 0.174568 25.009 0.000990134 0.106566 25.0149 0.00122815 0.109839
25.0129 0.00255556 0.182152 25.0188 0.00152431 0.109494 25.0201 0.00202328 0.110641 25.0221
0.00420883 0.183818 25.0221 0.00420883 0.183818 25.0196 0.00312474 0.182551 25.0217 0.00128163
0.0661799 25 7.48727e-14 6.87894e-12 24.9996 7.85533e-06 0.000723917 24.9988 1.80756e-05 0.00203505
24.9979 2.15067e-05 0.00230492 24.997 2.42604e-05 0.00193528 24.9983 1.60769e-05 0.000833562 25.0217
0.00128163 0.0661799 25.0201 0.00121768 0.0751084 25.0185 0.000844227 0.0711575 25.0242 0.000551891
0.0291713 25.0261 0.00068297 0.0280254 25.0271 0.000783316 0.0265966 25.0276 0.000856789 0.0252479
25.0281 0.000911749 0.0241947 25.0284 0.000952511 0.0235488 25.0287 0.000986483 0.0232442 25.029
0.00101057 0.0231509 25.029 0.00101057 0.0231509 25.0296 0.00102425 0.0232461 25.03 0.00102917
0.0233373 25 0 0 24.9881 0.000240101 0.042627 24.9881 0.000240101 0.042627
24.9881 0.000240101 0.042627 24.9919 0.000293889 0.0511181 24.9919 0.000293889 0.0511181 24.9969
0.000338994 0.0579037 24.9969 0.000338995 0.0579037 25.0021 0.000393724 0.0629301 25.0051 0.00025007
0.0422722 25.0089 0.000289731 0.0445584 25.007 0.000452905 0.0666642 25.0115 0.000552705 0.0691576
25.0124 0.000339956 0.04586 25.0154 0.000430883 0.0469052 25.0155 0.000685925 0.0708159 25.0212
0.000395956 0.0296612 25.0184 0.000834142 0.0710508 25.0176 0.000475932 0.0456271 25.0175 0.00030442
0.0308875 25.0242 0.000551891 0.0291713 25.0261 0.00068297 0.0280254 25.0271 0.000783316 0.0265966
25.0276 0.000856789 0.0252479 25.0281 0.000911749 0.0241947 25.0284 0.000952511 0.0235488 25.0287
0.000986483 0.0232442 25.029 0.00101057 0.0231509 25 3.10861e-14 2.97351e-12 24.9999 6.50947e-06
0.000624253 24.9997 1.44345e-05 0.00156233 24.9974 3.33538e-05 0.00484575 24.9979 2.52986e-05 0.00322984
24.9997 2.41159e-05 0.00318886 24.9964 5.6879e-05 0.0098515 24.9964 4.52704e-05 0.00721594 25.0002
3.6621e-05 0.00568951 24.9972 8.97146e-05 0.0169803 24.9959 7.51405e-05 0.0137285 25.0017 5.21044e-05
0.00881437 25.001 0.000127736 0.0241518 24.9982 0.000113983 0.0217788 25.0047 6.97045e-05 0.011802
25.0087 8.92971e-05 0.0139039 25.0034 0.000154683 0.0284795 25.0291 0.000494907 0.0128799 25.0293
0.000499959 0.0129363 25 0 0 25.0087 8.92972e-05 0.0139039 25.0069 0.00016774
0.0290524 25.0034 0.000154683 0.0284795 25.0131 0.000113149 0.0149052 25.0128 0.000223468 0.031417
25.0099 0.000202778 0.0322706 25.0169 0.00014714 0.015102 25.0154 0.000289499 0.0335809 25.0202
0.000196635 0.0149273 25.0227 0.000258921 0.0144246 25.0246 0.000322517 0.0136831 25.0259 0.000372409
0.0130955 25.0268 0.000406309 0.012788 25.0275 0.000431241 0.0126592 25.0281 0.000450146 0.0126384
25.0285 0.000468259 0.012689 25.0288 0.000483995 0.0127746 25.0291 0.000494907 0.0128799 25.0293
0.000499959 0.0129363 25 1.22513e-14 7.56698e-13 25.0001 5.69642e-06 0.000352699 25.0002 1.22823e-05
0.000836309 25.0002 1.22823e-05 0.000836309 25.0002 1.22823e-05 0.000836309 25.0006 1.97496e-05 0.00159819
25.0016 2.87653e-05 0.00268881 25.0033 3.95123e-05 0.00400359 25.0059 5.17246e-05 0.00526431 25.0093
6.52062e-05 0.00616493 25 0 0 25.0002 1.22823e-05 0.000836309 25.0093 6.52062e-05
0.00616493 25.0129 8.10143e-05 0.00659163 25.0164 0.000101233 0.00666941 25.0194 0.000127351 0.00653037
25.0218 0.000159344 0.00623156 25.0236 0.000192005 0.00589687 25.025 0.000219669 0.00561549 25.026
0.000241225 0.00538198 25.0268 0.000259255 0.00516303 25.0273 0.000274833 0.0049726 25.0277 0.000288674
0.0048277 25.0281 0.000300466 0.00472681 25.0285 0.000309718 0.00466625 25.0289 0.000314262 0.00464028
25 1.21844e-06 0 25.0001 5.42655e-06 0 25.0002 1.22823e-05 0.000836309 25.0003
1.15563e-05 0 25.0009 1.83755e-05 0 25.0019 2.64288e-05 0 25.0037 3.59116e-05
0 25.0062 4.66724e-05 0 25.0094 5.86054e-05 0 25 1.21844e-06 0
25.0094 5.86054e-05 0 25.0128 7.2256e-05 0 25.0162 8.90391e-05 0 25.0191
0.000109561 0 25.0214 0.000133602 0 25.0233 0.000157995 0 25.0247 0.000179507
0 25.0257 0.000196893 0 25.0265 0.000211276 0 25.0271 0.000223198 0
25.0276 0.00023323 0 25.028 0.000241429 0 25.0284 0.000247535 0 25.0287
0.000250579 0.00110597 27.6329 -0.0625258 0.14923 25 0 0 25 0
0 27.6718 -0.0601644 0.138712 25 0 0 24.1178 0.185572 5.43867
24.0139 0.185915 5.39414 23.6902 0.197964 5.61656 23.8341 0.195893 5.63533 24.749
0.00352526 -0.155628 24.8363 0.00223937 -0.132586 22.9866 0.0684538 2.16389 23.002 0.0659565
2.05202 23.0963 0.0629761 1.97318 25 0 0 24.6716 -0.0684661 0.104078
22.975 0.0709487 2.27678 25 0 0 25 0 0 25.3874
-0.0901031 0.193252 25.3366 -0.0896674 0.189534 22.1714 0.0515721 4.99616 22.6978 0.051763
5.27384 22.6972 0.0517615 5.27397 23.4365 -0.209059 11.2495 23.5325 -0.23248 10.8035
23.5816 -0.223565 10.9026 23.4841 -0.199067 11.3371 24.82 0.00202393 -0.0596356 24.7527
0.00294561 -0.0525234 24.8513 0.00140535 0.0398468 24.856 0.001333 0.0344512 24.8817 0.00101932
0.019228 24.9077 0.00075429 0.027589 24.8166 0.00315126 0.232252 24.7744 0.0041701 0.282505
24.7792 0.00359387 0.233949 24.8142 0.0028522 0.200386 24.3084 0.160569 4.88249 24.192
0.181004 5.36827 24.3425 0.155246 4.79998 24.7748 0.0044685 0.306392 23.1294 0.0601902
1.85706 23.3274 0.0538615 1.69553 24.8568 0.00140018 0.0610018 24.8347 0.00166137 0.0586867
24.7752 0.00478024 0.331031 24.863 0.008349 0.577642 24.8514 0.00790431 0.553931 24.8711
0.00607764 0.459552 26.4759 -0.0105526 -0.229286 26.4973 -0.0107935 -0.230764 25.5636 -0.00406449
-0.086865 22.6947 0.053291 4.4606 23.1926 0.0539723 4.74866 22.1605 0.0515681 4.9904
21.6666 0.0513657 4.74705 24.4404 0.00933108 -1.30829 24.3478 0.00969865 -1.4516 24.594
0.00722502 -1.55169 24.6633 0.00721154 -1.36102 24.5934 0.00794851 -1.32122 23.632 0.0475951
4.17042 23.054 0.046163 3.86053 24.3366 0.0106915 -1.20245 24.2768 0.0113377 -1.18019
24.1383 0.0121232 -1.32139 23.7298 0.0545076 5.03022 24.2514 0.0489302 4.53043 23.4032
-0.169623 11.6983 23.3981 -0.167775 11.7209 23.3526 -0.178222 11.6471 23.3559 -0.179427
11.6316 26.2103 -0.00754725 -0.210939 25 0 0 25 0 0
24.4754 0.00919203 -1.25408 24.2307 0.0131156 0.0699726 24.0917 0.0165475 0.163594 23.9735
0.0190492 0.116342 24.1492 0.0148682 0.0164604 24.0204 0.129098 4.76278 23.9865 0.127665
4.73295 24.0136 0.121932 4.51679 24.0505 0.122567 4.50763 25 0 0
25.0163 7.62971e-05 -0.0121153 25.0274 0.000110347 -0.0208947 25 0 0 25.0677
2.39151e-05 -0.0256227 25.1489 5.25484e-05 -0.0563375 25.1591 2.99638e-05 -0.0609592 24.9959 0.00013761
-0.0250486 24.9859 0.000163211 -0.0238579 24.9752 0.000277025 -0.0348217 24.9909 0.000233619 -0.0390167
23.6905 0.19195 5.40793 22.5148 0.219858 5.78143 22.8879 0.211151 5.74972 25
0 0 24.8912 0.00146883 -0.108574 24.8754 0.00147106 -0.083391 25 0
0 25.9752 -0.00517116 -0.182322 24.972 0.00230919 -0.311063 25.038 0.00187602 -0.322203
25.1063 0.0012825 -0.298248 25.084 0.000845733 -0.199978 24.9988 0.00140778 -0.214445 24.7283
0.00664202 -1.36034 24.8941 0.00519058 -1.35861 24.9425 0.00503122 -1.01641 24.6575 0.00776254
-0.955629 25 0 0 24.8407 -0.0688914 0.782969 23.0499 -0.0371953 10.1967
23.0626 -0.0386195 10.782 23.1534 0.138914 9.3218 24.2721 0.0114037 -1.17423 23.3108
-0.188934 11.5744 23.313 -0.189704 11.5638 24.9238 0.00186588 -0.20221 24.8597 0.00309076
-0.279621 24.9048 0.00286889 -0.309639 24.2997 0.0115373 -0.0487975 24.3536 0.010325 0.00587793
24.1626 0.0129336 -1.03601 24.43 0.0102483 -0.824438 25.2883 -0.0891912 0.185785 25
0 0 23.6801 -0.311901 7.63039 23.7887 -0.296146 7.14653 23.7582 -0.300163
7.24004 23.643 -0.316511 7.74442 23.3937 -0.218969 11.1625 23.4889 -0.241236 10.7047
23.518 -0.331943 8.28048 23.552 -0.328477 8.17332 24.0768 0.125582 4.57281 24.0524
0.13089 4.7909 20.1283 0.0984322 3.84209 20.0491 0.101453 4.12976 19.7506 0.0992024
4.21476 19.84 0.0963728 3.91458 25.748 -0.0998485 13.3198 26.1282 -0.098651 13.4652
26.0368 -0.0877675 14.0768 25.5993 -0.0868964 13.8633 20.8862 0.147637 9.10219 21.1746
0.15088 9.33234 20.9838 0.14748 9.93659 20.6082 0.144033 9.65596 24.1065 0.109335
4.03483 23.9838 0.119696 4.44748 24.0462 0.106896 3.97701 20.409 0.0998064 3.75756
20.339 0.102968 4.03133 23.2969 0.103616 3.89006 23.2938 0.103827 3.89828 23.2474
0.101896 3.80949 23.3204 0.09721 3.62696 23.3223 0.0972428 3.6287 21.3792 0.153591
8.80147 21.1388 0.150363 8.58893 23.3758 0.0981848 3.6787 26.6305 -0.156141 4.78354
26.7611 -0.15437 4.78745 26.6163 -0.161919 5.13857 25.122 -0.165434 4.05437 25.0557
-0.175365 4.40155 25.0017 -0.174692 4.32988 25.0682 -0.164717 3.98888 26.5939 -0.163362
5.20902 26.4603 -0.165166 5.19467 26.4854 -0.157893 4.77025 24.5345 0.0111682 0.561939
24.4622 0.0134622 0.644046 24.4703 0.0121561 0.565935 24.5308 0.0104386 0.508084 24.6327
0.00562908 0.219262 24.6301 0.00569719 0.223225 24.5276 0.00767678 0.256769 24.5402 0.00730924
0.233678 24.5232 0.0125428 0.639961 24.461 0.0147805 0.722745 24.6416 0.0187933 1.01217
24.5976 0.023183 1.18432 24.5702 0.0221525 1.13532 24.6124 0.0185299 0.993171 24.308
0.011474 0.109402 24.1981 0.0142732 0.194896 24.6804 0.00435546 0.145707 24.5581 0.00678228
0.20097 24.6044 0.00570189 0.152094 29.5737 -0.105015 3.58651 29.3313 -0.101869 3.25257
29.4618 -0.0973021 3.01882 29.7252 -0.100251 3.32972 19.1603 0.00909885 -5.21591 19.2323
0.0115283 -4.48696 18.5497 0.0125658 -4.33693 18.2947 0.0101607 -5.11658 28.4456 -0.0316082
-0.996008 28.735 -0.0315275 -1.41133 29.3606 -0.0389567 -1.011 28.9167 -0.038453 -0.662765
25.9456 -0.00421686 -1.42863 25.9852 -0.00463456 -1.45416 26.0244 -0.00500346 -1.42494 19.869
0.0106989 -4.49689 19.926 0.00819201 -5.16124 27.9652 -0.0256331 -1.19995 28.1105 -0.0251164
-1.6275 20.2093 0.0953786 3.56963 19.9316 0.0935294 3.62976 19.3331 0.0137511 -3.8992
18.7669 0.0148068 -3.71545 19.8679 0.0128948 -3.97483 29.1845 -0.106397 3.46892 29.4063
-0.109731 3.82206 25.9095 -0.114647 12.7801 26.2595 -0.112092 12.8862 26.6134 -0.1631
5.2111 26.7815 -0.154093 4.78806 26.7733 -0.160772 5.21819 25.4163 -0.101896 13.1578
25.5909 -0.118021 12.6499 17.1236 0.0669453 3.92972 17.5011 0.0702894 3.9481 17.3574
0.0726338 4.2971 17.0165 0.0695569 4.26908 17.0484 0.0679433 4.1073 28.9425 -0.108973
13.3812 28.8733 -0.10971 13.2677 27.9881 -0.110986 13.1403 28.4037 -0.109284 13.4145
15.8443 0.0948279 6.87715 15.6069 0.0939833 6.75809 15.8125 0.0920123 6.57819 16.0237
0.0928378 6.67242 25.2279 -0.0869973 13.6443 19.6641 0.209318 8.71208 19.6882 0.205563
8.76143 19.8411 0.184218 9.2337 19.6298 0.186879 9.10752 21.504 0.154307 9.55398
21.2951 0.150854 10.1312 25.9307 -0.00401695 -0.891597 25.6825 -0.0015478 -1.14405 25.78
-0.00246767 -1.32172 26.1892 -0.00655536 -1.30206 26.2748 -0.00739511 -1.10212 22.1172 0.0525362
0.551065 21.8353 0.0587568 0.820483 21.5276 0.0576518 0.710079 21.8584 0.0518094 0.417119
23.5994 0.0243992 -0.269357 23.5242 0.0234042 -0.541966 23.9218 0.0176644 -0.529663 23.9353
0.0182599 -0.331279 22.1884 0.0462088 0.175958 22.3992 0.0467401 0.327259 19.3389 0.120178
6.72457 19.7425 0.123556 6.50307 19.7833 0.127077 6.89893 19.3617 0.123623 7.15972
17.7208 0.0918468 13.8639 18.3721 0.108561 15.0438 18.6903 0.132731 15.6563 18.1293
0.121378 14.4089 15.6379 0.0968395 7.096 16.0724 0.0957152 6.97718 15.8764 0.0977665
7.21373 20.481 0.0966859 3.49759 23.5961 0.0319916 0.690213 23.5138 0.0355035 0.820102
23.3667 0.0389321 0.857306 23.4627 0.0350641 0.712967 22.3652 0.0520191 0.644698 22.1233
0.0580967 0.894378 29.1481 -0.109779 13.242 29.2333 -0.110485 13.1995 31.8135 -0.112657
6.82875 32.2024 -0.110978 7.47714 31.7419 -0.115002 7.83908 31.4023 -0.117067 7.18851
28.8307 -0.14411 9.19564 28.7421 -0.148386 8.5847 29.0862 -0.143763 8.47734 29.1985
-0.139676 9.0949 23.4069 0.100802 3.78907 23.4078 0.100876 3.7922 23.3419 0.1057
3.98262 19.8954 0.224832 8.41256 20.0254 0.22713 8.42454 21.63 0.156869 8.9816
28.9119 -0.108311 13.4756 28.5855 -0.107878 13.6007 17.6336 0.0641368 13.5161 18.0808
0.0790882 14.357 15.3709 0.0959905 6.93664 19.1471 -0.128655 9.06869 19.1471 -0.128655
9.06869 22.5368 -0.129467 10.6829 24.314 -0.123604 11.297 23.5728 -0.127218 10.875
31.1962 0.0736745 14.3685 30.7318 0.0772923 14.8822 29.844 0.0731821 14.2836 30.7324
0.0728176 14.0736 17.3464 0.0777687 13.0494 17.5943 0.105757 13.3349 20.8363 0.198201
9.09409 20.0413 0.206615 9.24793 20.1702 0.199723 9.31047 21.1011 0.188394 9.22341
22.4534 0.025221 12.853 21.9493 0.0230636 12.7999 20.491 0.0496314 11.8989 21.3496
0.0455123 12.1954 19.1471 -0.128655 9.06868 17.9512 0.114534 10.4944 16.8162 0.125471
9.85096 15.1799 0.138015 9.57705 15.3792 0.117873 9.55446 17.8705 0.120991 9.88818
18.0333 0.123066 10.341 17.5424 0.121353 10.6195 17.3954 0.119226 10.086 25
0 0 25 0 0 26.5324 -0.0876148 0.228607 26.4469 -0.0884877
0.228336 26.6405 -0.149026 4.37614 26.7698 -0.147386 4.37827 25.374 -0.00436538 -0.0077071
25.956 -0.012006 -0.00629068 25 0 0 25 0 0 29.1194
-0.0985468 2.94692 29.2322 -0.0942056 2.73454 28.2036 -0.0313332 -0.695289 28.5657 -0.0375978
-0.421495 28.991 -0.10285 3.14488 26.784 -0.147206 4.3785 27.4444 -0.0285287 -0.0503668
27.5781 -0.0323778 -0.0169646 25.0486 -0.000527253 -0.00166716 25 0 0 26.4103
-0.00906058 -0.759335 26.4121 -0.00908153 -0.755017 26.0813 -0.0056434 -0.651363 26.0809 -0.00563839
-0.652104 27.8268 -0.0258231 -0.877921 17.6638 0.0682682 3.57233 17.1475 0.0655294 3.72667
17.2554 0.0647098 3.50936 16.8825 0.0391657 1.24996 16.9 0.0381735 1.06262 17.0596
0.0385607 1.04887 17.0424 0.0396135 1.22107 18.8673 0.053839 1.35109 19.131 0.0571084
1.45512 18.9306 0.0587488 1.70766 18.6654 0.0553465 1.59869 18.8843 -0.129565 8.8373
23.0638 -0.130007 10.5631 27.286 -0.0248118 -0.0784407 23.5621 0.0315283 0.583814 23.6809
0.0288448 0.574089 23.9899 0.0177879 -0.175266 23.7168 0.0235145 -0.0871477 22.6058 0.0463193
0.431756 18.8843 -0.129565 8.83729 17.8734 0.073971 3.9864 17.7217 0.0761472 4.33313
19.7361 0.120182 6.12319 19.3546 0.116958 6.30944 16.236 0.0937085 6.75632 20.1425
0.137582 8.11495 20.3542 0.140983 8.48733 19.9777 0.137479 8.97313 19.7311 0.134096
8.54433 18.8349 0.116133 10.5728 19.5524 0.116865 11.0891 18.2689 0.122882 9.67743
18.4281 0.124836 10.0531 20.112 0.126001 6.26393 20.1621 0.129604 6.62568 22.4431
0.139338 5.73525 22.5407 0.142164 5.87448 22.4058 0.146739 6.22616 22.2969 0.143807
6.07777 21.7652 0.121426 4.75 21.9662 0.11832 4.50863 22.0058 0.121436 4.70182
21.8089 0.124798 4.95993 29.0158 -0.10886 13.2744 26.4258 -0.188113 8.79046 26.6701
-0.1829 8.82673 26.6373 -0.178882 9.407 26.3792 -0.184467 9.36502 28.4082 -0.153041
8.67881 28.4762 -0.148608 9.28389 17.5394 0.0541465 13.0336 23.8978 -0.110952 12.3929
24.0322 -0.136678 12.0496 24.1581 -0.129619 12.1823 24.012 -0.105401 12.529 22.9815
0.0115511 13.1268 22.7795 0.00768167 13.2296 17.3691 0.103074 7.218 17.9005 0.10733
7.18174 17.7955 0.110444 7.73962 17.4756 0.108475 7.83376 17.1656 0.106404 7.79375
17.2176 0.104376 7.49783 17.7637 0.118973 9.45035 17.3176 0.117128 9.59499 25.6552
-0.119017 11.6214 26.3989 -0.11479 12.0347 29.0345 -0.126125 11.1119 29.4422 -0.123879
11.0455 29.4553 -0.118353 11.6815 29.0384 -0.119771 11.7438 30.8741 -0.11698 10.7376
30.9553 -0.11474 11.1246 30.6656 -0.115977 11.1755 30.6203 -0.117994 10.8572 23.8566
-0.0529794 15.0169 23.6036 -0.0520135 15.0664 21.479 -0.0253986 14.6349 22.0573 -0.0321284
14.667 22.481 -0.0225018 14.0864 22.5527 0.0103625 14.601 21.904 -0.00550945 14.3948
22.4103 -0.0308749 14.2746 26.5189 -0.111716 12.5255 27.7672 -0.110154 12.9036 27.4675
-0.110161 12.8882 25.7919 -0.113363 12.3862 31.4295 0.0526015 9.62152 31.3707 0.0536689