# vtk DataFile Version 2.0
track0
ASCII
DATASET POLYDATA
POINTS 15780 float
-1.001 -0.05 0.0011
-1.0008 -0.05 0.0011
-1.0006 -0.05 0.0011
-1.0004 -0.05 0.0011
-1.0002 -0.05 0.0011
-1 -0.05 0.0011
-0.9875 -0.05 0.0011
-0.975 -0.05 0.0011
-0.9625 -0.05 0.0011
-0.95 -0.05 0.0011
-0.9375 -0.05 0.00109999
-0.925 -0.05 0.00109999
-0.9125 -0.05 0.00109999
-0.9 -0.05 0.00109999
-0.8875 -0.05 0.00109999
-0.875 -0.05 0.00109999
-0.8625 -0.05 0.00109999
-0.85 -0.05 0.00109999
-0.8375 -0.05 0.00109998
-0.825 -0.0500001 0.00109998
-0.8125 -0.0500001 0.00109998
-0.8 -0.0500001 0.00109998
-0.7875 -0.0500001 0.00109998
-0.775 -0.0500001 0.00109998
-0.7625 -0.0500001 0.00109998
-0.75 -0.0500001 0.00109998
-0.7375 -0.0500001 0.00109997
-0.725 -0.0500001 0.00109997
-0.7125 -0.0500001 0.00109997
-0.7 -0.0500001 0.00109997
-0.6875 -0.0500001 0.00109997
-0.675 -0.0500001 0.00109997
-0.6625 -0.0500001 0.00109997
-0.65 -0.0500001 0.00109996
-0.6375 -0.0500001 0.00109996
-0.625 -0.0500001 0.00109996
-0.6125 -0.0500001 0.00109996
-0.6 -0.0500001 0.00109996
-0.5875 -0.0500001 0.00109996
-0.575 -0.0500001 0.00109996
-0.5625 -0.0500001 0.00109996
-0.55 -0.0500001 0.00109995
-0.5375 -0.0500001 0.00109995
-0.525 -0.0500001 0.00109995
-0.5125 -0.0500001 0.00109995
-0.5 -0.0500001 0.00109995
-0.4875 -0.0500001 0.00109995
-0.475 -0.0500001 0.00109995
-0.4625 -0.0500001 0.00109994
-0.45 -0.0500002 0.00109994
-0.4375 -0.0500002 0.00109994
-0.425 -0.0500002 0.00109994
-0.4125 -0.0500002 0.00109994
-0.4 -0.0500002 0.00109994
-0.3875 -0.0500002 0.00109994
-0.375 -0.0500002 0.00109994
-0.3625 -0.0500002 0.00109993
-0.35 -0.0500002 0.00109993
-0.3375 -0.0500002 0.00109993
-0.325 -0.0500002 0.00109993
-0.3125 -0.0500002 0.00109993
-0.3 -0.0500002 0.00109993
-0.2875 -0.0500002 0.00109993
-0.275 -0.0500002 0.00109993
-0.2625 -0.0500002 0.00109992
-0.25 -0.0500002 0.00109992
-0.2375 -0.0500002 0.00109992
-0.225 -0.0500002 0.00109992
-0.2125 -0.0500002 0.00109992
-0.2 -0.0500002 0.00109992
-0.1875 -0.0500002 0.00109992
-0.175 -0.0500002 0.00109992
-0.1625 -0.0500002 0.00109991
-0.15 -0.0500002 0.00109991
-0.1375 -0.0500002 0.00109991
-0.125 -0.0500002 0.00109991
-0.1125 -0.0500002 0.00109991
-0.1 -0.0500002 0.00109991
-0.0875 -0.0500002 0.00109991
-0.075 -0.0500002 0.00109991
-0.0625 -0.0500002 0.00109991
-0.05 -0.0500003 0.00109991
-0.0375 -0.0500003 0.0010999
-0.025 -0.0500003 0.0010999
-0.0125 -0.0500003 0.0010999
2.10607e-13 -0.0500003 0.0010999
0.0125 -0.0500003 0.0010999
0.025 -0.0500003 0.0010999
0.0375 -0.0500003 0.0010999
0.05 -0.0500003 0.0010999
0.0625 -0.0500003 0.0010999
0.075 -0.0500003 0.0010999
0.0875 -0.0500003 0.0010999
0.1 -0.0500003 0.00109989
0.1125 -0.0500003 0.00109989
0.125 -0.0500003 0.00109989
0.1375 -0.0500003 0.00109989
0.15 -0.0500003 0.00109989
0.1625 -0.0500003 0.00109989
0.175 -0.0500003 0.00109989
0.1875 -0.0500003 0.00109989
0.2 -0.0500003 0.00109989
0.2125 -0.0500003 0.00109989
0.225 -0.0500003 0.00109989
0.2375 -0.0500003 0.00109989
0.25 -0.0500003 0.00109989
0.2625 -0.0500003 0.00109988
0.275 -0.0500003 0.00109988
0.2875 -0.0500003 0.00109988
0.3 -0.0500003 0.00109988
0.3125 -0.0500003 0.00109988
0.325 -0.0500003 0.00109988
0.3375 -0.0500003 0.00109988
0.35 -0.0500003 0.00109988
0.3625 -0.0500003 0.00109988
0.375 -0.0500003 0.00109988
0.3875 -0.0500003 0.00109988
0.4 -0.0500004 0.00109988
0.4125 -0.0500004 0.00109988
0.425 -0.0500004 0.00109988
0.4375 -0.0500004 0.00109988
0.45 -0.0500004 0.00109988
0.4625 -0.0500004 0.00109988
0.475 -0.0500004 0.00109988
0.4875 -0.0500004 0.00109988
0.5 -0.0500004 0.00109988
0.5125 -0.0500004 0.00109988
0.525 -0.0500004 0.00109988
0.5375 -0.0500004 0.00109988
0.55 -0.0500004 0.00109988
0.5625 -0.0500004 0.00109988
0.575 -0.0500004 0.00109987
0.5875 -0.0500004 0.00109987
0.6 -0.0500004 0.00109987
0.6125 -0.0500004 0.00109987
0.625 -0.0500004 0.00109987
0.6375 -0.0500004 0.00109987
0.65 -0.0500004 0.00109987
0.6625 -0.0500004 0.00109987
0.675 -0.0500004 0.00109987
0.6875 -0.0500004 0.00109987
0.7 -0.0500004 0.00109987
0.7125 -0.0500004 0.00109987
0.725 -0.0500004 0.00109987
0.7375 -0.0500004 0.00109987
0.75 -0.0500004 0.00109987
0.7625 -0.0500004 0.00109987
0.775 -0.0500004 0.00109987
0.7875 -0.0500004 0.00109987
0.8 -0.0500004 0.00109987
0.8125 -0.0500004 0.00109987
0.825 -0.0500004 0.00109987
0.8375 -0.0500004 0.00109987
0.85 -0.0500004 0.00109987
0.8625 -0.0500004 0.00109987
0.875 -0.0500004 0.00109987
0.8875 -0.0500004 0.00109987
0.9 -0.0500004 0.00109987
0.9125 -0.0500005 0.00109988
0.925 -0.0500005 0.00109988
0.9375 -0.0500005 0.00109988
0.95 -0.0500005 0.00109988
0.9625 -0.0500005 0.00109988
0.975 -0.0500005 0.00109988
0.9875 -0.0500005 0.00109988
1 -0.0500005 0.00109988
1.0125 -0.0500005 0.00109988
1.025 -0.0500005 0.00109988
1.0375 -0.0500005 0.00109988
1.05 -0.0500005 0.00109988
1.0625 -0.0500005 0.00109988
1.075 -0.0500005 0.00109988
1.0875 -0.0500005 0.00109988
1.1 -0.0500005 0.00109988
1.1125 -0.0500005 0.00109988
1.125 -0.0500005 0.00109988
1.1375 -0.0500005 0.00109988
1.15 -0.0500005 0.00109988
1.1625 -0.0500005 0.00109988
1.175 -0.0500005 0.00109988
1.1875 -0.0500005 0.00109988
1.2 -0.0500005 0.00109988
1.2125 -0.0500005 0.00109988
1.225 -0.0500005 0.00109988
1.2375 -0.0500005 0.00109989
1.25 -0.0500005 0.00109989
1.2625 -0.0500005 0.00109989
1.275 -0.0500005 0.00109989
1.2875 -0.0500005 0.00109989
1.3 -0.0500005 0.00109989
1.3125 -0.0500005 0.00109989
1.325 -0.0500005 0.00109989
1.3375 -0.0500005 0.00109989
1.35 -0.0500005 0.00109989
1.3625 -0.0500005 0.00109989
1.375 -0.0500005 0.00109989
1.3875 -0.0500005 0.00109989
1.4 -0.0500005 0.00109989
1.4125 -0.0500005 0.00109989
1.425 -0.0500005 0.00109989
1.4375 -0.0500005 0.0010999
1.45 -0.0500005 0.0010999
1.4625 -0.0500005 0.0010999
1.475 -0.0500005 0.0010999
1.4875 -0.0500005 0.0010999
1.5 -0.0500006 0.0010999
1.5125 -0.0500006 0.0010999
1.525 -0.0500006 0.0010999
1.5375 -0.0500006 0.0010999
1.55 -0.0500006 0.0010999
1.5625 -0.0500006 0.0010999
1.575 -0.0500006 0.0010999
1.5875 -0.0500006 0.0010999
1.6 -0.0500006 0.0010999
1.6125 -0.0500006 0.00109991
1.625 -0.0500006 0.00109991
1.6375 -0.0500006 0.00109991
1.65 -0.0500006 0.00109991
1.6625 -0.0500006 0.00109991
1.675 -0.0500006 0.00109991
1.6875 -0.0500006 0.00109991
1.7 -0.0500006 0.00109991
1.7125 -0.0500006 0.00109991
1.725 -0.0500006 0.00109991
1.7375 -0.0500006 0.00109991
1.75 -0.0500006 0.00109991
1.7625 -0.0500006 0.00109992
1.775 -0.0500006 0.00109992
1.7875 -0.0500006 0.00109992
1.8 -0.0500006 0.00109992
1.8125 -0.0500006 0.00109992
1.825 -0.0500006 0.00109992
1.8375 -0.0500006 0.00109992
1.85 -0.0500006 0.00109992
1.8625 -0.0500006 0.00109992
1.875 -0.0500006 0.00109992
1.8875 -0.0500006 0.00109992
1.9 -0.0500006 0.00109992
1.9125 -0.0500006 0.00109993
1.925 -0.0500006 0.00109993
1.9375 -0.0500006 0.00109993
1.95 -0.0500006 0.00109993
1.9625 -0.0500006 0.00109993
1.975 -0.0500006 0.00109993
1.9875 -0.0500006 0.00109993
2 -0.0500006 0.00109993
2.0125 -0.0500006 0.00109993
2.025 -0.0500006 0.00109993
2.0375 -0.0500006 0.00109993
2.05 -0.0500006 0.00109993
2.0625 -0.0500006 0.00109994
2.075 -0.0500006 0.00109994
2.0875 -0.0500006 0.00109994
2.1 -0.0500006 0.00109994
2.1125 -0.0500006 0.00109994
2.125 -0.0500006 0.00109994
2.1375 -0.0500006 0.00109994
2.15 -0.0500006 0.00109994
2.1625 -0.0500006 0.00109994
2.175 -0.0500007 0.00109994
2.1875 -0.0500007 0.00109994
2.2 -0.0500007 0.00109994
2.2125 -0.0500007 0.00109994
2.225 -0.0500007 0.00109995
2.2375 -0.0500007 0.00109995
2.25 -0.0500007 0.00109995
2.2625 -0.0500007 0.00109995
2.275 -0.0500007 0.00109995
2.2875 -0.0500007 0.00109995
2.3 -0.0500007 0.00109995
2.3125 -0.0500007 0.00109995
2.325 -0.0500007 0.00109995
2.3375 -0.0500007 0.00109995
2.35 -0.0500007 0.00109995
2.3625 -0.0500007 0.00109995
2.375 -0.0500007 0.00109995
2.3875 -0.0500007 0.00109996
2.4 -0.0500007 0.00109996
2.4125 -0.0500007 0.00109996
2.425 -0.0500007 0.00109996
2.4375 -0.0500007 0.00109996
2.45 -0.0500007 0.00109996
2.4625 -0.0500007 0.00109996
2.475 -0.0500007 0.00109996
2.4875 -0.0500007 0.00109996
2.5 -0.0500007 0.00109996
2.5125 -0.0500007 0.00109996
2.525 -0.0500007 0.00109996
2.5375 -0.0500007 0.00109996
2.55 -0.0500007 0.00109996
2.5625 -0.0500007 0.00109997
2.575 -0.0500007 0.00109997
2.5875 -0.0500007 0.00109997
2.6 -0.0500007 0.00109997
2.6125 -0.0500007 0.00109997
2.625 -0.0500007 0.00109997
2.6375 -0.0500007 0.00109997
2.65 -0.0500007 0.00109997
2.6625 -0.0500007 0.00109997
2.675 -0.0500007 0.00109997
2.6875 -0.0500007 0.00109997
2.7 -0.0500007 0.00109997
2.7125 -0.0500007 0.00109997
2.725 -0.0500007 0.00109997
2.7375 -0.0500007 0.00109997
2.75 -0.0500007 0.00109997
2.7625 -0.0500007 0.00109998
2.775 -0.0500007 0.00109998
2.7875 -0.0500007 0.00109998
2.8 -0.0500007 0.00109998
2.8125 -0.0500007 0.00109998
2.825 -0.0500007 0.00109998
2.8375 -0.0500007 0.00109998
2.85 -0.0500007 0.00109998
2.8625 -0.0500008 0.00109998
2.875 -0.0500008 0.00109998
2.8875 -0.0500008 0.00109998
2.9 -0.0500008 0.00109998
2.9125 -0.0500008 0.00109998
2.925 -0.0500008 0.00109998
2.9375 -0.0500008 0.00109998
2.95 -0.0500008 0.00109998
2.9625 -0.0500008 0.00109998
2.975 -0.0500008 0.00109998
2.9875 -0.0500008 0.00109998
3 -0.0500008 0.00109998
3.0125 -0.0500008 0.00109999
3.025 -0.0500008 0.00109999
3.0375 -0.0500008 0.00109999
3.05 -0.0500008 0.00109999
3.0625 -0.0500008 0.00109999
3.075 -0.0500008 0.00109999
3.0875 -0.0500008 0.00109999
3.1 -0.0500008 0.00109999
3.1125 -0.0500008 0.00109999
3.125 -0.0500008 0.00109999
3.1375 -0.0500008 0.00109999
3.15 -0.0500008 0.00109999
3.1625 -0.0500008 0.00109999
3.175 -0.0500008 0.00109999
3.1875 -0.0500008 0.00109999
3.2 -0.0500008 0.00109999
3.2125 -0.0500008 0.00109999
3.225 -0.0500008 0.00109999
3.2375 -0.0500008 0.00109999
3.25 -0.0500008 0.00109999
3.2625 -0.0500008 0.00109999
3.275 -0.0500008 0.00109999
3.2875 -0.0500008 0.00109999
3.3 -0.0500008 0.00109999
3.3125 -0.0500008 0.00109999
3.325 -0.0500008 0.00109999
3.3375 -0.0500008 0.00109999
3.35 -0.0500008 0.0011
3.3625 -0.0500008 0.0011
[...]
POINT_DATA 15780
 FIELD attributes 1
U 3 15780 float
30.0002 	-7.01766e-06 	-6.30588e-06 30.0002 	-6.84318e-06 	-6.51454e-06 30.0002 	-6.6687e-06 	-6.72321e-06 30.0002 	-6.49422e-06 	-6.93188e-06 30.0002 	-6.31974e-06 	-7.14055e-06 30.0002 	-6.14525e-06 	-7.34921e-06 30.0004 	-1.23848e-05 	-1.26099e-06 30.0004 	-1.23848e-05 	-1.26099e-06 30.0004 	-1.23848e-05 	-1.26099e-06 30.0004 	-1.23848e-05 	-1.26099e-06 30.0002 	-7.03494e-08 	-6.84367e-06 30.0005 	-1.07087e-05 	-1.68704e-06 30.0005 	-1.07087e-05 	-1.68704e-06 30.0005 	-1.07087e-05 	-1.68704e-06 30.0005 	-1.07087e-05 	-1.68703e-06 30.0002 	-7.2033e-08 	-6.59608e-06 30.0005 	-9.95812e-06 	-2.08022e-06 30.0005 	-9.95811e-06 	-2.08022e-06 30.0005 	-9.95811e-06 	-2.08021e-06 30.0005 	-9.9581e-06 	-2.08021e-06 30.0003 	-4.5929e-06 	-6.24726e-06 30.0005 	-9.69136e-06 	-2.34894e-06 30.0005 	-9.69135e-06 	-2.34894e-06 30.0005 	-9.69134e-06 	-2.34894e-06 30.0005 	-9.69133e-06 	-2.34894e-06 30.0003 	-7.56409e-08 	-6.57616e-06 30.0005 	-9.5232e-06 	-2.49782e-06 30.0005 	-9.52319e-06 	-2.49781e-06 30.0005 	-9.52318e-06 	-2.49781e-06 30.0005 	-9.52317e-06 	-2.49781e-06 30.0003 	-7.74062e-08 	-6.52627e-06 30.0005 	-9.38683e-06 	-2.55606e-06 30.0005 	-9.38682e-06 	-2.55606e-06 30.0005 	-9.38681e-06 	-2.55605e-06 30.0005 	-9.3868e-06 	-2.55605e-06 30.0003 	-4.26674e-06 	-6.08529e-06 30.0005 	-9.2794e-06 	-2.55829e-06 30.0005 	-9.2794e-06 	-2.55829e-06 30.0005 	-9.27939e-06 	-2.55829e-06 30.0005 	-9.27938e-06 	-2.55828e-06 30.0003 	-4.19914e-06 	-5.9779e-06 30.0006 	-9.18724e-06 	-2.53043e-06 30.0006 	-9.18723e-06 	-2.53042e-06 30.0006 	-9.18722e-06 	-2.53042e-06 30.0006 	-9.18721e-06 	-2.53042e-06 30.0003 	-8.27229e-08 	-6.20127e-06 30.0006 	-9.09717e-06 	-2.48118e-06 30.0006 	-9.09716e-06 	-2.48118e-06 30.0006 	-9.09715e-06 	-2.48117e-06 30.0006 	-9.09715e-06 	-2.48117e-06 30.0003 	-8.44736e-08 	-6.05424e-06 30.0006 	-9.00471e-06 	-2.41361e-06 30.0006 	-9.0047e-06 	-2.41361e-06 30.0006 	-9.00469e-06 	-2.4136e-06 30.0006 	-9.00468e-06 	-2.4136e-06 30.0003 	-8.6222e-08 	-5.88783e-06 30.0006 	-8.90855e-06 	-2.32972e-06 30.0006 	-8.90854e-06 	-2.32972e-06 30.0006 	-8.90854e-06 	-2.32972e-06 30.0006 	-8.90853e-06 	-2.32972e-06 30.0003 	-3.93773e-06 	-5.36347e-06 30.0006 	-8.8085e-06 	-2.23274e-06 30.0006 	-8.80849e-06 	-2.23274e-06 30.0006 	-8.80848e-06 	-2.23274e-06 30.0006 	-8.80847e-06 	-2.23274e-06 30.0003 	-3.86394e-06 	-5.16476e-06 30.0006 	-8.70422e-06 	-2.12414e-06 30.0006 	-8.70422e-06 	-2.12413e-06 30.0006 	-8.70421e-06 	-2.12413e-06 30.0006 	-8.7042e-06 	-2.12413e-06 30.0003 	-9.14728e-08 	-5.28458e-06 30.0006 	-8.59602e-06 	-2.00508e-06 30.0006 	-8.59601e-06 	-2.00508e-06 30.0006 	-8.596e-06 	-2.00507e-06 30.0006 	-8.596e-06 	-2.00507e-06 30.0003 	-3.70432e-06 	-4.7194e-06 30.0007 	-8.48462e-06 	-1.87668e-06 30.0007 	-8.48462e-06 	-1.87668e-06 30.0007 	-8.48461e-06 	-1.87668e-06 30.0007 	-8.48461e-06 	-1.87668e-06 30.0003 	-3.6192e-06 	-4.47431e-06 30.0007 	-8.37126e-06 	-1.73884e-06 30.0007 	-8.37125e-06 	-1.73883e-06 30.0007 	-8.37125e-06 	-1.73883e-06 30.0007 	-8.37124e-06 	-1.73883e-06 30.0004 	-9.66612e-08 	-4.54319e-06 30.0007 	-8.25964e-06 	-1.59803e-06 30.0007 	-8.25964e-06 	-1.59803e-06 30.0007 	-8.25963e-06 	-1.59803e-06 30.0007 	-8.25963e-06 	-1.59803e-06 30.0004 	-9.83768e-08 	-4.27124e-06 30.0007 	-8.14761e-06 	-1.46323e-06 30.0007 	-8.14761e-06 	-1.46323e-06 30.0007 	-8.1476e-06 	-1.46323e-06 30.0007 	-8.1476e-06 	-1.46323e-06 30.0004 	-1.0009e-07 	-3.98927e-06 30.0007 	-8.01951e-06 	-1.32072e-06 30.0007 	-8.01951e-06 	-1.32072e-06 30.0007 	-8.0195e-06 	-1.32071e-06 30.0007 	-8.0195e-06 	-1.32071e-06 30.0004 	-3.25076e-06 	-3.37795e-06 30.0007 	-7.88068e-06 	-1.168e-06 30.0007 	-7.88068e-06 	-1.168e-06 30.0007 	-7.88068e-06 	-1.168e-06 30.0007 	-7.88067e-06 	-1.168e-06 30.0004 	-1.03479e-07 	-3.40288e-06 30.0007 	-7.74472e-06 	-1.00787e-06 30.0007 	-7.74472e-06 	-1.00787e-06 30.0007 	-7.74471e-06 	-1.00787e-06 30.0007 	-7.74471e-06 	-1.00787e-06 30.0004 	-1.05167e-07 	-3.10327e-06 30.0007 	-7.61055e-06 	-8.41854e-07 30.0007 	-7.61055e-06 	-8.41854e-07 30.0007 	-7.61055e-06 	-8.41853e-07 30.0007 	-7.61055e-06 	-8.41853e-07 30.0004 	-2.93153e-06 	-2.48789e-06 30.0007 	-7.47475e-06 	-6.702e-07 30.0007 	-7.47474e-06 	-6.702e-07 30.0007 	-7.47474e-06 	-6.70199e-07 30.0007 	-7.47474e-06 	-6.70199e-07 30.0004 	-2.82503e-06 	-2.18313e-06 30.0007 	-7.34257e-06 	-4.97045e-07 30.0007 	-7.34257e-06 	-4.97045e-07 30.0007 	-7.34257e-06 	-4.97045e-07 30.0007 	-7.34257e-06 	-4.97045e-07 30.0004 	-1.10191e-07 	-2.1711e-06 30.0007 	-7.21474e-06 	-3.17318e-07 30.0007 	-7.21473e-06 	-3.17318e-07 30.0007 	-7.21473e-06 	-3.17318e-07 30.0007 	-7.21473e-06 	-3.17318e-07 30.0004 	-1.11848e-07 	-1.85336e-06 30.0007 	-7.09796e-06 	-1.38213e-07 30.0007 	-7.09796e-06 	-1.38213e-07 30.0007 	-7.09796e-06 	-1.38213e-07 30.0007 	-7.09796e-06 	-1.38213e-07 30.0004 	-1.13489e-07 	-1.54902e-06 30.0007 	-6.9846e-06 	4.08542e-08 30.0007 	-6.9846e-06 	4.08542e-08 30.0007 	-6.9846e-06 	4.08542e-08 30.0007 	-6.9846e-06 	4.08542e-08 30.0004 	-2.4385e-06 	-9.5851e-07 30.0007 	-6.87097e-06 	2.14669e-07 30.0007 	-6.87097e-06 	2.14669e-07 30.0007 	-6.87097e-06 	2.14669e-07 30.0007 	-6.87097e-06 	2.14669e-07 30.0004 	-2.34687e-06 	-6.82308e-07 30.0007 	-6.75276e-06 	3.90719e-07 30.0007 	-6.75276e-06 	3.90719e-07 30.0007 	-6.75276e-06 	3.90719e-07 30.0007 	-6.75277e-06 	3.90719e-07 30.0004 	-1.18393e-07 	-7.0977e-07 30.0007 	-6.64222e-06 	5.64371e-07 30.0007 	-6.64222e-06 	5.64371e-07 30.0007 	-6.64222e-06 	5.64371e-07 30.0007 	-6.64222e-06 	5.64372e-07 30.0004 	-2.16649e-06 	-1.45449e-07 30.0007 	-6.53521e-06 	7.27399e-07 30.0007 	-6.53521e-06 	7.27399e-07 30.0007 	-6.53521e-06 	7.27399e-07 30.0007 	-6.53521e-06 	7.27399e-07 30.0004 	-2.08081e-06 	1.13829e-07 30.0007 	-6.42988e-06 	8.78837e-07 30.0007 	-6.42988e-06 	8.78838e-07 30.0007 	-6.42988e-06 	8.78838e-07 30.0007 	-6.42988e-06 	8.78838e-07 30.0004 	-1.23264e-07 	7.05777e-08 30.0007 	-6.32227e-06 	1.01779e-06 30.0007 	-6.32227e-06 	1.01779e-06 30.0007 	-6.32227e-06 	1.01779e-06 30.0007 	-6.32228e-06 	1.01779e-06 30.0004 	-1.24845e-07 	3.15807e-07 30.0007 	-6.21588e-06 	1.14062e-06 30.0007 	-6.21588e-06 	1.14062e-06 30.0007 	-6.21588e-06 	1.14062e-06 30.0007 	-6.21589e-06 	1.14062e-06 30.0004 	-1.26421e-07 	5.45525e-07 30.0007 	-6.11459e-06 	1.25632e-06 30.0007 	-6.1146e-06 	1.25632e-06 30.0007 	-6.1146e-06 	1.25632e-06 30.0007 	-6.1146e-06 	1.25632e-06 30.0004 	-1.76396e-06 	1.03207e-06 30.0007 	-6.02184e-06 	1.37127e-06 30.0007 	-6.02185e-06 	1.37128e-06 30.0007 	-6.02185e-06 	1.37128e-06 30.0007 	-6.02185e-06 	1.37128e-06 30.0004 	-1.29509e-07 	9.36942e-07 30.0007 	-5.94217e-06 	1.4885e-06 30.0007 	-5.94217e-06 	1.4885e-06 30.0007 	-5.94218e-06 	1.4885e-06 30.0007 	-5.94218e-06 	1.4885e-06 30.0004 	-1.31004e-07 	1.10456e-06 30.0007 	-5.87094e-06 	1.59289e-06 30.0007 	-5.87095e-06 	1.59289e-06 30.0007 	-5.87095e-06 	1.59289e-06 30.0007 	-5.87095e-06 	1.59289e-06 30.0004 	-1.59107e-06 	1.53876e-06 30.0007 	-5.80132e-06 	1.67932e-06 30.0007 	-5.80132e-06 	1.67932e-06 30.0007 	-5.80133e-06 	1.67932e-06 30.0007 	-5.80133e-06 	1.67932e-06 30.0003 	-1.54385e-06 	1.67821e-06 30.0007 	-5.73323e-06 	1.75011e-06 30.0007 	-5.73323e-06 	1.75011e-06 30.0007 	-5.73323e-06 	1.75012e-06 30.0007 	-5.73324e-06 	1.75012e-06 30.0003 	-1.35699e-07 	1.52473e-06 30.0006 	-5.66808e-06 	1.80981e-06 30.0006 	-5.66809e-06 	1.80982e-06 30.0006 	-5.66809e-06 	1.80982e-06 30.0006 	-5.6681e-06 	1.80982e-06 30.0003 	-1.37252e-07 	1.63228e-06 30.0006 	-5.608e-06 	1.85995e-06 30.0006 	-5.608e-06 	1.85995e-06 30.0006 	-5.60801e-06 	1.85995e-06 30.0006 	-5.60801e-06 	1.85995e-06 30.0003 	-1.38718e-07 	1.724e-06 30.0006 	-5.5537e-06 	1.90044e-06 30.0006 	-5.5537e-06 	1.90044e-06 30.0006 	-5.5537e-06 	1.90045e-06 30.0006 	-5.55371e-06 	1.90045e-06 30.0003 	-1.38852e-06 	2.07104e-06 30.0006 	-5.50485e-06 	1.93111e-06 30.0006 	-5.50486e-06 	1.93111e-06 30.0006 	-5.50486e-06 	1.93111e-06 30.0006 	-5.50487e-06 	1.93111e-06 30.0003 	-1.36148e-06 	2.13097e-06 30.0006 	-5.46112e-06 	1.95185e-06 30.0006 	-5.46112e-06 	1.95185e-06 30.0006 	-5.46112e-06 	1.95185e-06 30.0006 	-5.46113e-06 	1.95185e-06 30.0003 	-1.4276e-07 	1.90827e-06 30.0006 	-5.42234e-06 	1.96279e-06 30.0006 	-5.42234e-06 	1.96279e-06 30.0006 	-5.42234e-06 	1.9628e-06 30.0006 	-5.42235e-06 	1.9628e-06 30.0003 	-1.32311e-06 	2.20767e-06 30.0006 	-5.38837e-06 	1.96433e-06 30.0006 	-5.38837e-06 	1.96433e-06 30.0006 	-5.38837e-06 	1.96433e-06 30.0006 	-5.38838e-06 	1.96433e-06 30.0003 	-1.31133e-06 	2.22555e-06 30.0006 	-5.35919e-06 	1.95693e-06 30.0006 	-5.35919e-06 	1.95693e-06 30.0006 	-5.3592e-06 	1.95693e-06 30.0006 	-5.3592e-06 	1.95693e-06 30.0003 	-1.46649e-07 	1.96618e-06 30.0005 	-5.33472e-06 	1.94113e-06 30.0005 	-5.33473e-06 	1.94113e-06 30.0005 	-5.33473e-06 	1.94113e-06 30.0005 	-5.33474e-06 	1.94114e-06 30.0003 	-1.4791e-07 	1.96058e-06 30.0005 	-5.31473e-06 	1.91794e-06 30.0005 	-5.31473e-06 	1.91794e-06 30.0005 	-5.31473e-06 	1.91794e-06 30.0005 	-5.31474e-06 	1.91795e-06 30.0003 	-1.49124e-07 	1.94425e-06 30.0005 	-5.29913e-06 	1.88801e-06 30.0005 	-5.29913e-06 	1.88801e-06 30.0005 	-5.29914e-06 	1.88802e-06 30.0005 	-5.29914e-06 	1.88802e-06 30.0003 	-1.30879e-06 	2.17902e-06 30.0005 	-5.28778e-06 	1.85192e-06 30.0005 	-5.28779e-06 	1.85192e-06 30.0005 	-5.28779e-06 	1.85192e-06 30.0005 	-5.2878e-06 	1.85192e-06 30.0003 	-1.51475e-07 	1.88231e-06 30.0005 	-5.28051e-06 	1.81009e-06 30.0005 	-5.28052e-06 	1.81009e-06 30.0005 	-5.28052e-06 	1.8101e-06 30.0005 	-5.28052e-06 	1.8101e-06 30.0003 	-1.52598e-07 	1.83819e-06 30.0005 	-5.27707e-06 	1.76317e-06 30.0005 	-5.27707e-06 	1.76317e-06 30.0005 	-5.27708e-06 	1.76317e-06 30.0005 	-5.27708e-06 	1.76318e-06 30.0003 	-1.34801e-06 	2.0441e-06 30.0005 	-5.27724e-06 	1.71164e-06 30.0005 	-5.27725e-06 	1.71164e-06 30.0005 	-5.27725e-06 	1.71164e-06 30.0005 	-5.27725e-06 	1.71164e-06 30.0003 	-1.36808e-06 	1.98426e-06 30.0005 	-5.28082e-06 	1.65601e-06 30.0005 	-5.28082e-06 	1.65601e-06 30.0005 	-5.28083e-06 	1.65601e-06 30.0005 	-5.28083e-06 	1.65601e-06 30.0002 	-1.55821e-07 	1.66283e-06 30.0005 	-5.28762e-06 	1.5967e-06 30.0005 	-5.28763e-06 	1.5967e-06 30.0005 	-5.28763e-06 	1.5967e-06 30.0005 	-5.28763e-06 	1.5967e-06 30.0002 	-1.56879e-07 	1.59258e-06 30.0004 	-5.29758e-06 	1.53417e-06 30.0004 	-5.29759e-06 	1.53417e-06 30.0004 	-5.29759e-06 	1.53417e-06 30.0004 	-5.29759e-06 	1.53418e-06 30.0002 	-1.57957e-07 	1.51772e-06 30.0004 	-5.31053e-06 	1.46891e-06 30.0004 	-5.31053e-06 	1.46891e-06 30.0004 	-5.31054e-06 	1.46891e-06 30.0004 	-5.31054e-06 	1.46891e-06 30.0002 	-1.47976e-06 	1.69065e-06 30.0004 	-5.32608e-06 	1.40146e-06 30.0004 	-5.32608e-06 	1.40146e-06 30.0004 	-5.32609e-06 	1.40146e-06 30.0004 	-5.32609e-06 	1.40146e-06 30.0002 	-1.51428e-06 	1.60716e-06 30.0004 	-5.34399e-06 	1.33222e-06 30.0004 	-5.344e-06 	1.33222e-06 30.0004 	-5.344e-06 	1.33222e-06 30.0004 	-5.344e-06 	1.33222e-06 30.0002 	-1.61229e-07 	1.27189e-06 30.0004 	-5.36403e-06 	1.2615e-06 30.0004 	-5.36403e-06 	1.2615e-06 30.0004 	-5.36404e-06 	1.2615e-06 30.0004 	-5.36404e-06 	1.2615e-06 30.0002 	-1.58963e-06 	1.43253e-06 30.0004 	-5.38585e-06 	1.18983e-06 30.0004 	-5.38585e-06 	1.18983e-06 30.0004 	-5.38586e-06 	1.18983e-06 30.0004 	-5.38586e-06 	1.18983e-06 30.0002 	-1.63011e-06 	1.34245e-06 30.0004 	-5.40949e-06 	1.11751e-06 30.0004 	-5.40949e-06 	1.11751e-06 30.0004 	-5.40949e-06 	1.11751e-06 30.0004 	-5.40949e-06 	1.11751e-06 30.0002 	-1.6426e-07 	1.00612e-06 30.0004 	-5.43462e-06 	1.04483e-06 30.0004 	-5.43462e-06 	1.04483e-06 30.0004 	-5.43462e-06 	1.04483e-06 30.0004 	-5.43462e-06 	1.04483e-06 30.0002 	-1.65209e-07 	9.15645e-07 30.0004 	-5.46029e-06 	9.72291e-07 30.0004 	-5.46029e-06 	9.72292e-07 30.0004 	-5.46029e-06 	9.72292e-07 30.0004 	-5.46029e-06 	9.72292e-07 30.0002 	-1.66116e-07 	8.25023e-07 30.0004 	-5.48635e-06 	8.99515e-07 30.0004 	-5.48635e-06 	8.99515e-07 30.0004 	-5.48635e-06 	8.99515e-07 30.0004 	-5.48636e-06 	8.99515e-07 30.0002 	-1.80703e-06 	9.75457e-07 30.0004 	-5.51315e-06 	8.25981e-07 30.0004 	-5.51315e-06 	8.25981e-07 30.0004 	-5.51316e-06 	8.25981e-07 30.0004 	-5.51316e-06 	8.25982e-07 30.0002 	-1.67833e-07 	6.43657e-07 30.0003 	-5.5429e-06 	7.52021e-07 30.0003 	-5.54291e-06 	7.52021e-07 30.0003 	-5.54291e-06 	7.52021e-07 30.0003 	-5.54291e-06 	7.52021e-07 30.0002 	-1.68657e-07 	5.52664e-07 30.0003 	-5.57739e-06 	6.77476e-07 30.0003 	-5.5774e-06 	6.77477e-07 30.0003 	-5.5774e-06 	6.77477e-07 30.0003 	-5.5774e-06 	6.77477e-07 30.0002 	-1.95542e-06 	7.01352e-07 30.0003 	-5.61426e-06 	6.04412e-07 30.0003 	-5.61426e-06 	6.04412e-07 30.0003 	-5.61427e-06 	6.04412e-07 30.0003 	-5.61427e-06 	6.04413e-07 30.0002 	-2.00761e-06 	6.11721e-07 30.0003 	-5.65035e-06 	5.34692e-07 30.0003 	-5.65035e-06 	5.34692e-07 30.0003 	-5.65035e-06 	5.34692e-07 30.0003 	-5.65035e-06 	5.34692e-07 30.0002 	-1.71152e-07 	2.80969e-07 30.0003 	-5.68146e-06 	4.67666e-07 30.0003 	-5.68147e-06 	4.67666e-07 30.0003 	-5.68147e-06 	4.67666e-07 30.0003 	-5.68147e-06 	4.67666e-07 30.0002 	-1.71983e-07 	1.97354e-07 30.0003 	-5.7099e-06 	4.0322e-07 30.0003 	-5.7099e-06 	4.0322e-07 30.0003 	-5.7099e-06 	4.0322e-07 30.0003 	-5.7099e-06 	4.0322e-07 30.0002 	-1.72783e-07 	1.16424e-07 30.0003 	-5.73807e-06 	3.39258e-07 30.0003 	-5.73807e-06 	3.39258e-07 30.0003 	-5.73807e-06 	3.39258e-07 30.0003 	-5.73807e-06 	3.39259e-07 30.0002 	-2.20088e-06 	2.74121e-07 30.0003 	-5.76605e-06 	2.75293e-07 30.0003 	-5.76605e-06 	2.75293e-07 30.0003 	-5.76605e-06 	2.75293e-07 30.0003 	-5.76605e-06 	2.75293e-07 30.0002 	-2.24781e-06 	1.96377e-07 30.0003 	-5.79279e-06 	2.10805e-07 30.0003 	-5.79279e-06 	2.10805e-07 30.0003 	-5.79279e-06 	2.10805e-07 30.0003 	-5.79279e-06 	2.10805e-07 30.0002 	-1.74958e-07 	-1.09125e-07 30.0003 	-5.82081e-06 	1.48793e-07 30.0003 	-5.82081e-06 	1.48793e-07 30.0003 	-5.82081e-06 	1.48793e-07 30.0003 	-5.82081e-06 	1.48793e-07 30.0002 	-2.34159e-06 	4.46923e-08 30.0003 	-5.85007e-06 	8.99979e-08 30.0003 	-5.85007e-06 	8.99979e-08 30.0003 	-5.85007e-06 	8.99979e-08 30.0003 	-5.85007e-06 	8.99979e-08 30.0002 	-2.3889e-06 	-2.90823e-08 30.0003 	-5.88049e-06 	3.48251e-08 30.0003 	-5.88049e-06 	3.48251e-08 30.0003 	-5.88049e-06 	3.48251e-08 30.0003 	-5.88049e-06 	3.48251e-08 30.0002 	-1.76965e-07 	-3.30754e-07 30.0003 	-5.91223e-06 	-1.70634e-08 30.0003 	-5.91223e-06 	-1.70634e-08 30.0003 	-5.91223e-06 	-1.70634e-08 30.0003 	-5.91223e-06 	-1.70634e-08 30.0002 	-1.77593e-07 	-4.01792e-07 30.0003 	-5.94536e-06 	-6.90436e-08 30.0003 	-5.94536e-06 	-6.90436e-08 30.0003 	-5.94536e-06 	-6.90436e-08 30.0003 	-5.94536e-06 	-6.90436e-08 30.0002 	-1.78203e-07 	-4.67065e-07 30.0003 	-5.97733e-06 	-1.23304e-07 30.0003 	-5.97733e-06 	-1.23304e-07 30.0003 	-5.97733e-06 	-1.23304e-07 30.0003 	-5.97733e-06 	-1.23304e-07 30.0002 	-2.58044e-06 	-3.0136e-07 30.0003 	-6.00512e-06 	-1.77949e-07 30.0003 	-6.00512e-06 	-1.77949e-07 30.0003 	-6.00512e-06 	-1.77949e-07 30.0003 	-6.00512e-06 	-1.77949e-07 30.0002 	-1.79397e-07 	-5.84879e-07 30.0003 	-6.02925e-06 	-2.29208e-07 30.0003 	-6.02925e-06 	-2.29208e-07 30.0003 	-6.02925e-06 	-2.29208e-07 30.0003 	-6.02925e-06 	-2.29208e-07 30.0002 	-1.79993e-07 	-6.42142e-07 30.0003 	-6.0525e-06 	-2.76172e-07 30.0003 	-6.0525e-06 	-2.76172e-07 30.0003 	-6.0525e-06 	-2.76172e-07 30.0003 	-6.0525e-06 	-2.76172e-07 30.0002 	-2.70853e-06 	-4.78963e-07 30.0003 	-6.07637e-06 	-3.19651e-07 30.0003 	-6.07637e-06 	-3.19651e-07 30.0003 	-6.07637e-06 	-3.19651e-07 30.0003 	-6.07636e-06 	-3.19651e-07 30.0002 	-2.74956e-06 	-5.34007e-07 30.0003 	-6.10061e-06 	-3.61188e-07 30.0003 	-6.10061e-06 	-3.61187e-07 30.0003 	-6.10061e-06 	-3.61187e-07 30.0003 	-6.10061e-06 	-3.61187e-07 30.0002 	-1.81748e-07 	-8.03783e-07 30.0003 	-6.12466e-06 	-4.01386e-07 30.0003 	-6.12466e-06 	-4.01386e-07 30.0003 	-6.12466e-06 	-4.01386e-07 30.0003 	-6.12466e-06 	-4.01386e-07 30.0001 	-1.82304e-07 	-8.53104e-07 30.0003 	-6.14807e-06 	-4.40381e-07 30.0003 	-6.14807e-06 	-4.40381e-07 30.0003 	-6.14807e-06 	-4.40381e-07 30.0003 	-6.14807e-06 	-4.4038e-07 30.0001 	-1.82847e-07 	-9.00313e-07 30.0003 	-6.17074e-06 	-4.77999e-07 30.0003 	-6.17074e-06 	-4.77999e-07 30.0003 	-6.17074e-06 	-4.77999e-07 30.0003 	-6.17074e-06 	-4.77999e-07 30.0001 	-2.90909e-06 	-7.31439e-07 30.0003 	-6.19254e-06 	-5.14214e-07 30.0003 	-6.19254e-06 	-5.14214e-07 30.0003 	-6.19254e-06 	-5.14214e-07 30.0003 	-6.19254e-06 	-5.14214e-07 30.0001 	-2.94697e-06 	-7.75566e-07 30.0003 	-6.21348e-06 	-5.48839e-07 30.0003 	-6.21348e-06 	-5.48839e-07 30.0003 	-6.21348e-06 	-5.48839e-07 30.0003 	-6.21348e-06 	-5.48839e-07 30.0001 	-1.84398e-07 	-1.02953e-06 30.0003 	-6.23361e-06 	-5.82055e-07 30.0003 	-6.2336e-06 	-5.82055e-07 30.0003 	-6.2336e-06 	-5.82055e-07 30.0003 	-6.2336e-06 	-5.82055e-07 30.0001 	-3.01999e-06 	-8.57454e-07 30.0003 	-6.25289e-06 	-6.13895e-07 30.0003 	-6.25289e-06 	-6.13895e-07 30.0003 	-6.25289e-06 	-6.13895e-07 30.0003 	-6.25289e-06 	-6.13895e-07 30.0001 	-3.05509e-06 	-8.95462e-07 30.0003 	-6.2714e-06 	-6.44422e-07 30.0003 	-6.27139e-06 	-6.44421e-07 30.0003 	-6.27139e-06 	-6.44421e-07 30.0003 	-6.27139e-06 	-6.44421e-07 30.0001 	-1.85856e-07 	-1.14084e-06 30.0003 	-6.28915e-06 	-6.7362e-07 30.0003 	-6.28915e-06 	-6.73619e-07 30.0003 	-6.28915e-06 	-6.73619e-07 30.0003 	-6.28915e-06 	-6.73619e-07 30.0001 	-1.8632e-07 	-1.1746e-06 30.0003 	-6.30619e-06 	-7.01436e-07 30.0003 	-6.30619e-06 	-7.01436e-07 30.0003 	-6.30618e-06 	-7.01435e-07 30.0003 	-6.30618e-06 	-7.01435e-07 30.0001 	-1.86777e-07 	-1.20669e-06 30.0003 	-6.32229e-06 	-7.27864e-07 30.0003 	-6.32229e-06 	-7.27863e-07 30.0003 	-6.32228e-06 	-7.27863e-07 30.0003 	-6.32228e-06 	-7.27863e-07 30.0001 	-3.18658e-06 	-1.03098e-06 30.0003 	-6.33757e-06 	-7.52975e-07 30.0003 	-6.33756e-06 	-7.52975e-07 30.0003 	-6.33756e-06 	-7.52975e-07 30.0003 	-6.33756e-06 	-7.52975e-07 30.0001 	-1.87659e-07 	-1.26597e-06 30.0003 	-6.3521e-06 	-7.76943e-07 30.0003 	-6.3521e-06 	-7.76943e-07 30.0003 	-6.3521e-06 	-7.76943e-07 30.0003 	-6.35209e-06 	-7.76943e-07 30.0001 	-1.88081e-07 	-1.29332e-06 30.0003 	-6.36592e-06 	-7.99813e-07 30.0003 	-6.36592e-06 	-7.99813e-07 30.0003 	-6.36592e-06 	-7.99813e-07 30.0003 	-6.36592e-06 	-7.99812e-07 30.0001 	-3.27601e-06 	-1.11603e-06 30.0003 	-6.37902e-06 	-8.2154e-07 30.0003 	-6.37902e-06 	-8.21539e-07 30.0003 	-6.37902e-06 	-8.21539e-07 30.0003 	-6.37901e-06 	-8.21539e-07 30.0001 	-3.30413e-06 	-1.14151e-06 30.0003 	-6.39135e-06 	-8.41977e-07 30.0003 	-6.39135e-06 	-8.41976e-07 30.0003 	-6.39134e-06 	-8.41976e-07 30.0003 	-6.39134e-06 	-8.41976e-07 30.0001 	-1.89304e-07 	-1.36687e-06 30.0003 	-6.40299e-06 	-8.61368e-07 30.0003 	-6.40299e-06 	-8.61368e-07 30.0003 	-6.40299e-06 	-8.61368e-07 30.0003 	-6.40299e-06 	-8.61367e-07 30.0001 	-1.89697e-07 	-1.38874e-06 30.0003 	-6.41395e-06 	-8.79805e-07 30.0003 	-6.41395e-06 	-8.79805e-07 30.0003 	-6.41395e-06 	-8.79805e-07 30.0003 	-6.41394e-06 	-8.79805e-07 30.0001 	-1.90082e-07 	-1.40939e-06 30.0003 	-6.42421e-06 	-8.97287e-07 30.0003 	-6.42421e-06 	-8.97287e-07 30.0003 	-6.4242e-06 	-8.97287e-07 30.0003 	-6.4242e-06 	-8.97286e-07 30.0001 	-3.40847e-06 	-1.2305e-06 30.0003 	-6.43379e-06 	-9.13873e-07 30.0003 	-6.43379e-06 	-9.13872e-07 30.0003 	-6.43379e-06 	-9.13872e-07 30.0003 	-6.43379e-06 	-9.13872e-07 30.0001 	-3.43261e-06 	-1.24983e-06 30.0003 	-6.44271e-06 	-9.29558e-07 30.0003 	-6.44271e-06 	-9.29557e-07 30.0003 	-6.44271e-06 	-9.29557e-07 30.0003 	-6.44271e-06 	-9.29557e-07 30.0001 	-1.91196e-07 	-1.46456e-06 30.0003 	-6.45102e-06 	-9.4441e-07 30.0003 	-6.45101e-06 	-9.4441e-07 30.0003 	-6.45101e-06 	-9.44409e-07 30.0003 	-6.45101e-06 	-9.44409e-07 30.0001 	-3.4787e-06 	-1.28532e-06 30.0003 	-6.4587e-06 	-9.58412e-07 30.0003 	-6.4587e-06 	-9.58412e-07 30.0003 	-6.4587e-06 	-9.58412e-07 30.0003 	-6.4587e-06 	-9.58411e-07 30.0001 	-3.50076e-06 	-1.30159e-06 30.0003 	-6.4658e-06 	-9.71706e-07 30.0003 	-6.4658e-06 	-9.71705e-07 30.0003 	-6.46579e-06 	-9.71705e-07 30.0003 	-6.46579e-06 	-9.71705e-07 