# vtk DataFile Version 2.0
sampleSurface
ASCII
DATASET POLYDATA
POINTS 9879 float
6 2.24045e-22 1 6 -4.23516e-22 0 5 0 0 5 4.23516e-22
0.5 5 5.02844e-23 1 7 1.69508e-17 0 6 2.40786e-23 1
7 -4.23516e-22 1 8 -1.0754e-16 0 8 4.23516e-22 1 9
-7.28995e-17 0 9 4.23516e-22 1 10 5.03714e-17 0 10 -4.23516e-22
1 11 -1.10109e-16 0 11 0 1 12 1.14673e-16 0
12 0 1 13 1.07357e-16 0 13 -2.11758e-22 1 14
-3.31971e-17 0 14 0 1 15 0 1 15 5.68977e-17
0 -5 -1.61559e-27 0 -5 1.61559e-27 0 -5 0 0.5
-5 8.07794e-28 0.5 -2.89285 0 0 -3.00033 0 0 -3.00033
-8.47033e-22 0.0932873 -1.00051 -1.01779e-17 0.124742 -0.875522 0 0.124691 -0.875461 -8.40257e-19
0 -1.00046 0 0 0.015625 1.94517e-24 2.2091e-05 5.35603e-05 -1.21492e-24 0.0155233
0.0156432 3.30872e-24 0.0155555 1.00057 -5.42101e-19 0.0152422 1.00056 0 0.0308735 1.03181
0 0.0308728 1.03183 -1.89735e-19 0 1.00058 0 0 2 1.21939e-17
0.125 2 2.01948e-28 0.25 2.25 0 0.25 2.25 -1.26744e-17 0
2 2.01948e-28 0 3 2.86199e-17 0.25 3 3.16479e-17 0.5 3.5
2.01948e-28 0.5 3.5 -1.71188e-17 0 3 2.01948e-28 0 4 0
0 4 0 0 4 5.4967e-18 0.5 4 1.00974e-28 0.5
6 2.52435e-29 1 5 0 1 6 2.96289e-24 1 5
3.35588e-25 2 6 4.23516e-22 2 7 4.23516e-22 2 8 0
2 9 -4.23516e-22 2 10 0 2 11 2.11758e-22 2
12 0 2 13 -2.11758e-22 2 14 0 2 15
2.11758e-22 2 -5 0 1 -5 0 1.5 -5 0
1.5 -5 0 1 -1.00051 0 1.00028 -1.0005 1.69407e-21 1.07098
-0.875582 -3.38813e-21 1.04431 -0.875573 0 1.00033 -0.000176494 0 1.00043 -0.000187004
1.35525e-18 1.03171 0.0310738 0 1.03178 0.0310423 5.42101e-20 1.0005 0.0154335 0
1.00047 2.25 0 1 2 5.03191e-18 1 2 -8.15581e-18 1.125
2 6.36148e-18 1.25 2.25 0 1.25 3.5 0 1 3
-7.24998e-18 1 3 -1.28933e-17 1.25 3 -3.74554e-18 1.5 3.5 0
1.5 4 0 1 4 2.0972e-17 1.5 4.50019 3.38813e-21 1.50011
4.50001 3.17637e-22 1.0073 4 -1.00974e-28 1 5 -4.34409e-17 1.5 5
-2.52435e-29 2 5 1.60269e-22 2 5 4.23516e-22 2.5 5 0
3 6 -4.23516e-22 3 7 4.23516e-22 3 8 4.23516e-22 3
9 0 3 10 0 3 11 -2.11758e-22 3 12
2.11758e-22 3 13 -2.11758e-22 3 14 2.11758e-22 3 15 0
3 -5 0 2 -5 0 2 -5 0 2
-0.750281 -2.71051e-20 2.0005 -0.996618 -5.0822e-21 2.00034 -0.884887 3.38813e-21 2.25032 -0.750178
-2.73083e-17 2.25039 0.124965 6.77626e-21 2.00046 0.0589837 -3.38813e-21 2.00046 0.102874 -1.69407e-21
2.25032 0.249982 -1.24887e-17 2.25032 0.249997 1.35525e-20 2.00047 1.0005 1.35525e-20 2.00056
1.00037 1.35525e-20 2.25063 1.25045 -1.35525e-20 2.25054 1.25043 -1.69813e-17 2.00047 1.12546
-1.35525e-20 2.00051 2.00018 3.38813e-21 2.00013 2.00027 1.07133e-17 2.25026 2.25027 6.77626e-21
2.25023 2.25017 6.77626e-21 2.00011 3.5 0 2 3.00014 -1.11944e-17 2.00005
3.00014 2.41235e-17 2.25008 3.00001 2.0117e-21 2.49701 3.5 0 2 4
-1.32349e-23 2 4.00001 0 2.00871 4.5 -3.02248e-22 2.5 4.5 2.52435e-29
2.5 4.50017 2.11758e-22 2.00014 -5 0 4 -4.00035 0 4
-4.0004 -5.66496e-18 3.5 -4.00039 0 3 -4.5002 0 3 -5
-9.5459e-22 3 5 -8.47033e-22 3.5 5 2.1923e-22 4 5 1.90287e-22
4 6 4.23516e-22 4 7 0 4 8 0 4
9 4.23516e-22 4 10 0 4 11 2.11758e-22 4 12
2.11758e-22 4 13 0 4 14 2.11758e-22 4 15 0
4 -5 0 3 -5 0 4 -0.750077 -1.69407e-21 3.00019
-0.975165 6.35275e-22 3.00002 -0.50002 0 3.43551 -0.50014 0 3.00035 0.249985
0 3.00023 0.097637 1.69407e-21 3.00023 0.500042 3.38813e-21 3.26572 0.500014 0
3.00034 1.00005 -1.35525e-20 3.00048 1.00018 8.47033e-22 3.50026 1.50019 0 3.50023
1.50022 -1.55041e-17 3.00052 1.2501 0 3.00055 2.00039 0 3.00045 2.00025
6.77626e-21 3.50028 2.50024 -6.77626e-21 3.50026 2.50027 -2.15688e-17 3.00027 2.25034 0
3.00035 3.0002 -1.69407e-21 3.00018 3.00017 9.52404e-18 3.50018 3.50015 3.38813e-21 3.50016
3.50018 0 3.00016 4.00014 -6.90484e-17 3.50015 4.41401 8.47033e-22 3.50003 4.5
2.24255e-22 3 4.5 0 3 4.00015 0 3.00016 5 0
4 -5 -4.56216e-21 5 -4.00031 0 5 -3.00034 1.35525e-20 5.00001
-3.0004 2.50722e-18 4.5 -3.00052 0 4 -3.50051 -3.61446e-17 4 5
-5.3804e-23 4 4.5 0 4 4.01315 -1.98523e-22 4 6 -1.77009e-22
5 7 8.49641e-23 5 8 -2.44576e-22 5 9 -1.79481e-22 5
10 -8.26783e-24 5 11 3.71066e-23 5 12 7.40495e-23 5 13
-7.46022e-23 5 13 -3.57483e-23 5 14 -2.11758e-22 5 15 0
5 -5 1.00974e-28 5 0.5 0 4 0.499998 0 4
0.5 0 4 1 -1.61559e-27 4 1 -1.61559e-27 4 1.5
-5.24977e-23 4 1.5 0 4 2.00017 -3.38813e-21 4.00019 2 -4.13239e-17
4.5 2.5 0 4.5 2.50016 0 4.00018 3 0 4
3 2.76547e-17 4.5 3.5 -2.52435e-29 4.5 3.5 0 4 5
0 5 4 0 4 4 -3.3529e-17 4.5 4 1.26218e-29
5 6 3.15544e-30 5 7 0 5 8 0 5
9 3.9443e-31 5 10 0 5 11 -9.86076e-32 5 12
-4.93038e-32 5 13 1.2326e-32 5 -5 -1.50785e-21 6 -4.00028 0
6 -3 -2.11758e-22 6 -2 -2.11758e-22 5 -2.50019 3.01205e-17 5.00003
-2 0 6 -1 -2.35712e-17 5 -1.5 1.39417e-17 5 -1
8.47033e-22 6 -1.46255e-06 1.4195e-17 5 -0.500002 2.00704e-17 5 -4.41788e-07 4.23516e-22
6 1 1.75768e-17 5 0.499999 -4.03442e-18 5 1 0 6
2 -1.6111e-22 6 1.5 -2.46127e-23 5 14 -2.49584e-23 6 15
6.49997e-23 6 -5 0 6 2 -1.00974e-28 6 2 -6.34437e-17
5 1.5 4.03897e-28 5 3 5.04871e-29 6 3 -2.10964e-17 5
2.5 0 5 4 -1.26218e-29 6 3.5 2.52435e-29 5 5
-6.31089e-30 6 6 -3.15544e-30 6 7 1.57772e-30 6 8 7.88861e-31
6 9 -3.9443e-31 6 10 0 6 11 0 6
12 -2.46519e-32 6 13 1.2326e-32 6 14 0 6 15
-1.52652e-17 6 -5 -6.17313e-21 7 -4.00025 1.35525e-20 7 -3 6.2323e-23
7 -3 5.04871e-29 7 -3 1.09771e-22 7 -2 4.23516e-22 7
-1 -4.23516e-22 7 -6.20385e-08 0 7 1 0 7 2
0 7 -5 -2.52435e-29 7 -3 0 7 2 5.04871e-29
7 3 2.52435e-29 7 4 0 7 5 6.31089e-30 7
6 -3.15544e-30 7 7 0 7 8 3.9443e-31 7 9
0 7 10 -9.86076e-32 7 11 0 7 12 1.2326e-32
7 13 0 7 14 0 7 15 -1.08141e-17 7
-5 1.7064e-23 8 -4 0 8 -3 1.32733e-22 7 -3
0 8 -2 0 8 -1 -4.23516e-22 8 -4.65216e-09 0
8 1 0 8 2 0 8 -5 7.6473e-18 8
2 -2.52435e-29 8 3 0 8 4 0 8 5
-6.31089e-30 8 6 1.57772e-30 8 7 0 8 8 3.9443e-31
8 9 0 8 10 9.86076e-32 8 11 0 8
12 1.2326e-32 8 13 0 8 14 0 8 15
0 8 1.98072e-05 -1.47443e-18 0.0155232 -6.78597e-10 6.46235e-27 0 -0.015625 1.89557e-19
0 -0.015607 0 0.0155222 0.015625 6.46235e-27 0 0.984621 -2.64274e-19 1.00027
1.00023 6.77626e-21 1.00025 1.00022 0 0.984609 0.984609 0 0.984627 -0.875589
0 0.875281 -1.00051 0 0.875232 -0.000168606 -7.04731e-19 0.984785 -0.0157783 0
0.984748 -0.0157891 0 1.0004 0.984964 -4.87891e-19 0 0.984951 0 0.0152386
0.0154375 2.71051e-20 0.984823 0.500347 0 0 0.484697 -1.40946e-18 0 0.484699
-2.71051e-20 0.0154073 0.50035 2.71051e-20 0.0153902 6.85113e-05 -6.74075e-34 0.497067 0.00351742 0
0.497921 0.00351735 -6.16298e-33 0.497919 0.500935 -5.29396e-23 0.500103 0.500923 1.81265e-19 0.484474
0.485343 0 0.48448 0.485354 -5.29396e-23 0.500107 -1.0005 0 1.12529 -0.875598
0 1.12535 -0.847656 0 1.75035 -0.875511 -8.67701e-18 1.75034 -1.00046 8.00954e-18
1.75027 -1.00043 4.23516e-22 2.00034 -0.000137327 0 2.00046 -0.000174407 -6.77626e-21 1.87558
-0.125203 0 1.87555 -0.125185 -4.78404e-18 2.0005 1.00026 0 1.03153 0.969013
6.77626e-21 1.00028 0.969038 8.80914e-19 1.03156 0.0614109 0 1.87557 -0.0314004 0
1.00037 -0.0314207 0 1.03167 -0.750309 -7.75205e-18 1.87547 -0.750381 0 1.75039
0.124961 0 1.87556 1.00049 5.54298e-18 1.87554 0.875516 1.35525e-20 1.87556 0.875507
0 2.00058 -0.442444 -4.23516e-22 0.0622773 -0.437776 0 0.0622817 -0.437709 -2.11758e-22
0.0234443 -0.0040072 3.0527e-19 0.500638 -0.000168277 0 0.500646 -2.94017e-06 0 0.497049
-0.00322378 0 0.496279 -0.492468 -5.29396e-23 0.500175 -0.469803 -2.11758e-22 0.500181 -0.469837
0 0.468841 -0.501073 0 0.468827 -0.501061 2.64698e-23 0.480492 -0.000101869 -1.47052e-19
0.504366 -0.00397949 -2.01948e-28 0.504355 -0.501028 0 0.522018 -0.501022 0 0.531434
-0.469779 0 0.531436 0.00364412 0 0.500984 0.00375691 0 0.504522 0.485366
0 0.514811 0.485366 0 0.515734 0.500948 0 0.515729 0.500947 -1.65436e-24
0.515118 -0.500391 3.52366e-19 0.0622223 -0.437669 4.23516e-22 0 -0.500304 0 0
-0.501042 0 0.500173 -0.50037 -5.42101e-20 1.00067 -0.43782 0 1.00061 -0.437881
5.42101e-20 0.938131 -0.500433 0 0.93818 0.500963 -5.14996e-19 0.984633 0.485343 0
0.984612 0.485309 -1.35525e-20 1.00027 0.500901 2.71051e-20 1.00034 -2.0003 0 0
-2.00031 0 0.249984 -1.75035 -6.77626e-21 0.249978 -1.75034 -2.12097e-18 0 -1.12549
1.69407e-21 0.0567975 -1.12551 -3.38813e-21 0.124883 -1.1051 0 0.12486 -2.00053 -4.06576e-19
0.750021 -2.00052 0 1.00001 -1.75043 0 1 -1.75044 1.35525e-20 0.750004
1.03145 0 1.00022 1.03142 0 0.968935 1.0002 -6.77626e-21 0.968969 -1.12548
0 0 -1.12547 0 0.875178 -1.12544 0 1.00021 -0.562867 -4.63496e-18
0 -0.562923 0 0.0621015 -0.875622 1.40946e-18 0.499992 -0.875629 -1.40946e-18 0.43746
-0.875614 0 0.37493 -1.00058 -1.35525e-20 0.374847 -1.0006 -6.77626e-21 0.499982 -0.501071
0 0.459931 -0.501067 7.5513e-19 0.437262 -0.563478 0 0.437296 -0.563493 0
0.500081 1.875 7.07317e-18 0 1.875 0 0.125 2 -9.02096e-18 0.875
1.875 -1.00974e-28 0.875 1.875 0 1 -0.501021 2.64698e-23 0.532727 0.516516
0 0.515723 0.516516 -1.65436e-24 0.515322 -1.00059 3.04932e-18 0.625092 -0.875599 0
0.625021 -0.875605 0 0.562503 -0.563001 -5.42101e-20 0.938195 -0.562935 0 1.00068
-0.501004 6.60686e-20 0.562681 -0.563465 6.77626e-21 0.562645 0.515999 -2.71051e-20 0.0153741 0.515996
1.89735e-19 0 1.00002 0 0.499997 1.00004 6.91179e-19 0.484354 0.984415 3.38813e-21
0.484354 0.984397 0 0.499997 0.516504 -1.57919e-19 0.500096 0.516494 -4.23516e-22 0.484467
0.984397 0 0.515625 1.00002 0 0.515625 0.516455 3.25261e-19 1.00046 0.516567
-2.71051e-20 0.984687 -0.000486907 -2.11758e-22 0.751673 0.0150628 0 0.751704 0.0151069 -2.11758e-22
0.736039 -0.000466544 1.79846e-18 0.73608 0.250631 -1.05879e-22 0.499142 0.234996 0 0.4991
0.235042 0 0.51471 0.250685 1.77115e-18 0.514757 0.234396 1.59578e-18 0.751475 0.250021
2.64698e-23 0.751472 0.250098 0 0.735925 0.234416 0 0.735938 0.500674 0
1.03185 0.469677 2.71051e-20 1.00028 0.46947 -2.71051e-20 1.0318 -0.000487113 0 0.767278
0.0150573 0 0.767313 0.249988 1.48893e-23 0.985961 0.249988 0 0.985377 0.234363
0 0.98538 0.234363 8.27181e-25 1.00097 0.234889 9.09899e-24 1.00097 0.250006 2.3521e-18
0.76703 0.234384 0 0.767027 0.249988 -2.64698e-23 1.00096 0.250614 0 0.249941
0.237135 1.32349e-23 0.249938 0.250669 1.98523e-23 0.26291 0.484921 5.42101e-19 0.249634 0.484944
-5.42101e-20 0.265243 0.500584 0 0.265233 0.500562 5.42101e-20 0.249623 0.25266 0
[...]
POINT_DATA 9879
FIELD attributes 1
p 1 9879 float
-0.146803 1.38373 1.70145 -0.000124621 -2.61928 0.638096 -0.146803 -0.198958 0.210439 -0.253354 0.128869
-0.196109 0.115322 -0.132062 0.0935923 -0.0955196 0.0760606 -0.0723052 0.0657813 -0.0515195 0.0637076
-0.0269154 0 0.0331517 0.678064 0.678064 0.684002 0.684002 0.587223 0.609857 0.617631
-4.52119 -6.88371 -7.58837 -4.97791 -71.6462 -72.9632 -71.7683 3.97929 4.05068 4.21588
4.13799 3.9457 2.77284 1.92872 0.931553 1.55071 2.40385 1.60859 0.113523 -1.07052
-0.455855 0.512511 0.434108 0.434107 -0.440332 -0.440332 -0.146803 -2.61928 -0.146803 -0.548288
-0.784945 -0.368543 -0.212998 -0.14689 -0.0968764 -0.0621627 -0.0399983 -0.0231897 -0.0139436 0
0.699927 0.720818 0.720818 0.699927 5.06915 5.103 6.93128 7.00242 44.5477 40.2968
40.2371 44.4718 44.8996 -18.2645 -17.6428 -2.02472 4.74588 -0.255533 -3.38641 -11.1171
-4.68956 0.247027 -2.36218 -2.7075 -2.02153 -2.33545 -3.29743 -2.7075 -2.56762 -0.548288
-0.548288 0.0505454 0.185603 0.120766 0.160199 0.122082 0.0781737 0.0587804 0.0525653 0.0495043
0.0456728 0.0341645 0 0.740886 0.740886 0.740886 3.70524 3.0323 2.73918 2.97873
5.49318 5.42628 3.86728 3.8291 5.23327 3.6104 2.8444 2.53642 3.22085 3.45128
2.858 2.03006 1.85216 2.59297 0.583388 1.75774 1.48978 1.13844 0.583388 0.156578
0.157954 0.0962316 0.0962316 -0.126832 0.763167 0.777825 0.790677 0.789416 0.767668 0.763842
0.235879 0.2298 0.2298 0.133348 0.0474125 0.00651133 -0.00459487 -0.00340862 0.00160084 0.00604862
0.00771462 0.00655267 0 0.763842 0.763167 1.78197 1.63037 1.44499 1.85085 1.98879
1.97006 1.59309 1.8582 1.60603 1.21256 1.02778 1.32305 1.49335 1.08433 0.848262
0.692492 0.906348 1.02064 0.70071 0.544873 0.395913 0.460654 0.284591 0.253111 0.212545
0.212545 0.248001 0.2298 0.749979 0.756311 0.776783 0.808112 0.837147 0.803105 0.2298
0.256463 0.294313 0.144552 0.0920764 0.0711124 0.0604286 0.0501323 0.0412417 0.0337914 0.0262521
0.0262521 0.0174139 0 0.749979 1.07578 1.07578 1.07578 0.977402 0.977401 0.849113
0.849114 0.716009 0.635553 0.537424 0.591148 0.478374 0.448763 0.372179 0.376017 0.219048
0.295335 0.316417 0.310391 0.144552 0.0920764 0.0711124 0.0604286 0.0501323 0.0412417 0.0337914
0.0262521 0.733499 0.735003 0.739493 0.814148 0.800565 0.742783 0.842181 0.840847 0.733744
0.826127 0.856414 0.69785 0.732536 0.80344 0.624643 0.520083 0.670022 0.00669047 0
0.733499 0.520083 0.58148 0.670022 0.407339 0.428914 0.505826 0.309054 0.366502 0.228559
0.163829 0.118049 0.08688 0.0630169 0.0441659 0.030667 0.0210746 0.0132774 0.00669047 0
0.721254 0.720461 0.717058 0.717058 0.717058 0.707657 0.686147 0.645005 0.579376 0.492772
0.721254 0.717058 0.492772 0.398115 0.310165 0.235842 0.175893 0.129799 0.0955297 0.0704037
0.0519539 0.0384002 0.0280011 0.0190412 0.0109 0 0.716842 0.71543 0.717058 0.709896
0.697152 0.672494 0.630181 0.566836 0.485419 0.716842 0.485419 0.396143 0.311766 0.239603
0.180604 0.134286 0.0995111 0.0738611 0.0545268 0.039573 0.027673 0.0175072 0.00881964 0.00246086
-72.9658 -72.8355 -73.8419 -73.9803 -71.646 5.62117 5.84315 5.1345 4.72913 6.74516
4.66923 46.8589 46.7512 44.788 3.84446 3.8962 46.8668 -12.7532 -14.0515 -13.9964
-12.6975 34.7559 21.8877 21.8903 -25.0901 -22.4111 -24.6583 -27.2194 5.12896 6.80002
4.3942 4.2624 3.60972 3.02187 5.36635 6.42246 6.29913 5.41338 6.03083 5.18128
5.96388 6.40898 44.2582 40.0533 4.2903 4.85445 6.39496 4.08741 4.39436 3.93689
-36.3163 -36.8609 -36.8691 44.1125 31.4216 35.0224 48.7638 13.2888 15.4263 9.28573
7.80151 9.54263 26.6745 41.3529 15.8579 17.3138 20.6013 17.1481 10.5626 -29.4975
-29.6405 -27.6823 -27.581 -29.556 -36.8741 -29.8172 12.4802 19.7819 23.1636 25.9857
21.7075 13.4661 14.4306 14.8084 13.9528 0.197405 0.281976 0.0310954 -0.121174 -3.11236
-2.95667 -3.21218 0.781806 1.03708 1.28266 0.888506 5.42695 3.88847 3.88619 -3.24224
3.32993 3.74472 -23.9859 -23.63 1.16371 -0.441788 -2.08065 -1.46245 0.544048 6.22643
2.21274 1.41346 8.32612 3.60489 3.76829 -26.9932 -26.1305 -14.974 17.4361 -25.8457
-25.7752 2.38676 3.96291 2.78581 18.0326 16.7684 20.2705 13.9232 -11.4655 -11.5216
3.48329 4.53237 4.58671 3.52561 -23.0989 -20.317 2.14306 2.2294 13.0164 12.5575
103.441 103.805 109.466 108.977 -108.192 -120.033 -123.896 -110.847 53.7134 45.3595
44.0521 53.9702 14.606 15.8393 16.2876 98.1447 98.4066 34.4772 34.5195 35.9322
34.8651 34.8155 46.0448 53.1919 33.3914 -52.8508 -56.3822 -54.3851 -10.6198 -10.3752
-8.71889 -9.00917 -54.1666 -50.5111 -48.9117 12.3192 14.0177 13.8537 12.4241 9.96599
10.0312 12.5545 12.2288 12.5423 13.9984 9.29656 10.1812 10.9198 10.0388 17.9483
20.6142 8.75483 11.7677 10.5793 -130.876 -122.826 -125.901 -134.451 115.61 118.668
132.481 132.725 -91.9452 -100.53 -118.791 -105.56 -23.9781 -24.9878 -25.9613 105.72
100.655 -78.4016 -82.8018 102.862 108.252 119.283 130.652 108.427 -119.234 -126.808
-104.67 -115.391 -54.6985 -56.9339 -59.0454 -97.3243 -94.6533 158.808 152.279 153.176
159.046 159.248 -203.126 -206.35 -209.895 -207.766 163.183 167.06 165.61 161.89
-99.0897 -12.0881 -13.1557 -15.7151 -14.8341 37.3504 34.5712 -22.8714 -17.0528 -19.7503
-30.0558 -32.002 69.0119 75.0696 81.8829 74.7517 34.485 35.9459 26.5131 26.5082
67.4577 62.8544 103.692 97.2905 93.8501 100.271 -59.1645 -66.9357 -51.2301 -45.8493
164.7 159.057 160.359 97.6682 34.8982 36.7418 40.1321 37.9708 63.574 68.7995
-198.684 -202.783 -216.762 -233.765 -221.737 -206.294 -145.144 -137.078 -146.155 -154.909
32.2618 32.2298 33.072 -10.4602 -9.29644 39.1179 -198.858 -204.321 -69.9071 -78.9056
168.923 -272.201 -272.201 -267.509 -265.385 -270.852 -286.423 -278.699 -259.73 -266.569
-53.4749 -42.3069 0.753251 -2.77799 0.234526 3.83468 -33.2317 -33.504 -28.1096 -28.3421
-272.201 40.5985 32.9404 30.1073 38.2045 104.088 96.5875 102.326 110.568 -41.4665
-43.7095 -43.7082 -41.4581 -51.2018 -54.6631 -63.8366 -67.7391 -67.5147 -63.752 -115.605
-118.296 -84.7784 -95.1747 -112.423 -55.0426 -64.3047 -68.1198 -59.1995 -59.187 -35.1287
-35.1681 -26.5888 -26.5774 -74.195 151.027 159.248 158.259 170.625 170.452 167.597
167.708 134.846 129.894 133.254 138.237 -276.509 -275.785 -59.7783 35.6943 32.9342
25.3624 31.9373 58.236 -276.509 145.789 146.921 99.7961 106.075 157.994 77.6251
70.2367 73.598 82.2623 34.7349 41.3416 98.946 92.2703 91.437 88.0975 45.1612
42.1812 43.1279 46.4701 65.2269 61.9284 60.1646 63.2696 -194.307 -74.8468 -81.6498
-86.1031 -78.8584 -128.274 -135.742 -62.6715 -49.6939 -48.6844 -53.3032 -54.147 -38.1904
-39.2147 135.833 127.102 124.585 129.562 135.367 136.476 110.336 116.678 -268.747
-263.2 -170.522 -182.092 -190.895 -178.85 -223.779 -230.159 -222.179 -217.131 -109.496
-127.874 -123.336 -104.158 -196.347 -201.093 -187.092 -184.875 -211.128 -214.273 -217.776
-211.208 -225.664 -227.618 -216.948 -214.499 -228.196 -218.887 -227.41 -231.406 -108.179
-113.987 -126.052 -120.662 138.534 136.265 142.484 144.09 67.1179 65.9479 72.7972
79.5333 77.7441 132.352 130.183 65.0471 0.960183 62.6554 87.1642 -212.263 -211.584
-225.42 -226.418 -220.052 -221.982 -223.22 -218.548 159.614 156.449 157.575 160.281
-299.189 -306.467 12.7862 4.55795 -12.9074 -8.81688 3.4671 -101.168 -95.6707 44.5683
6.11061 -56.7549 -269.58 -252.829 -169.023 -159.704 -172.812 -183.023 -207.952 -192.613
-202.595 -236.024 -236.874 -294.212 -283.451 -287.667 -236.117 -238.757 25.8382 23.0672
-27.7593 -36.8766 -39.1862 -28.0626 3.24179 -2.87587 -10.717 -5.023 16.5751 21.4779
23.9627 56.6293 54.6829 60.2056 51.1174 -216.14 -197.42 -216.669 -223.715 -220.472
-230.342 -231.786 -225.379 -76.8391 -85.0699 -102.201 -100.805 124.342 116.771 128.685
134.463 58.5651 47.007 63.6655 69.4091 116.536 107.804 97.6493 89.0971 93.2231
102.858 -227.103 -245.79 173.443 173.886 -271.621 -273.489 -307.872 -303.482 -273.95
-291.626 -301.897 -292.128 -282.51 -232.621 -238.382 -17.0109 -12.0955 3.87429 0.261301
-0.0878961 2.63156 -7.62589 -5.42831 -6.92759 -9.86727 19.7284 20.3928 5.04977 7.00993
9.39882 12.1357 11.113 8.4412 -221.313 -211.626 -153.477 -184.101 -199.706 -186.785
-170.133 -160.737 -216.397 -220.656 -248.55 -254.66 -244.338 -238.82 -215.5 -212.415
-220.585 -224.376 -245.585 -247.47 -234.077 -235.999 -209.362 -194.128 -217.048 -256.371
-224.176 -191.754 -186.543 -195.616 -199.985 -229.525 -219.716 -206.063 -210.299 -204.48
-102.054 -99.397 -67.6348 71.9232 46.4032 107.886 100.312 92.5623 -102.054 -66.3887
-49.765 26.4951 20.6792 6.41594 7.69333 -24.6254 -37.9478 -44.0876 -28.5536 50.4207
41.9496 29.0841 36.66 35.2068 32.5615 36.5315 38.809 -225.263 -189.607 -168.459
-207.611 -208.688 -222.702 -300.916 -311.872 155.774 153.083 154.082 157.04 -368.21
-372.333 -381.02 -375.428 159.625 175.645 175.938 155.415 154.033 148.395 149.613
160.898 160.864 164.176 163.224 -326.611 -332.271 -336.195 -330.222 -293.642 -289.701
-295.639 -298.967 -34.0425 -68.6876 -49.1235 -19.6591 -168.882 -140.96 -129.557 175.645
-200.887 -209.776 -130.708 -140.615 -142.215 -132.247 -244.559 -244.265 170.24 172.953
-160.213 -130.212 -132.459 -152.466 -172.424 -272.065 -308.48 167.376 101.236 93.9913
105.445 114.933 109.066 126.341 131.434 -191.816 -92.8786 -88.4246 -93.1038 -97.9623
-129.374 -137.779 152.916 154.888 162.373 157.558 156.308 158.957 162.559 159.225
159.968 163.382 171.36 168.643 169.804 171.933 152.916 171.933 171.36 150.015
145.462 145.744 150.67 167.484 170.216 168.654 163.263 164.44 145.283 151.845
151.765 145.827 -281.413 -272.932 -186.787 -175.217 -185.43 -198.194 -211.027 -225.562
-233.889 -239.514 -290.155 -215.074 -253.131 -255.837 -179.864 -234.336 -234.794 -296.491
-297.563 -279.045 -223.289 -244.837 -240.644 -281.135 -269.243 -270.366 -281.594 -283.967
-268.691 -297.563 -281.135 -270.366 -184.35 -184.35 -165.042 -169.614 -188.887 162.696
165.956 161.454 -184.35 162.696 165.956 158.506 160.472 158.382 154.405 149.607
151.855 155.805 156.752 159.235 157.863 -54.4239 -94.3371 -222.332 -189.595 -220.961
-175.955 -174.371 -181.334 -162.77 -170.83 -161.67 -152.927 -244.39 -247.657 -219.681
-228.749 -174.358 149.775 150.85 157.723 128.233 136.382 135.971 129.087 129.131
136.39 140.726 145.239 170.982 168.092 144.456 151.61 -120.086 -130.601 -209.188
-220.023 -224.826 -211.907 -141.477 -157.905 -155.655 -137.316 -153.68 -148.044 -93.8499
-108.715 162.696 155.703 156.036 129.462 137.577 158.924 161.744 169.14 168.376
165.595 166.327 171.36 170.55 167.728 171.679 171.679 170.786 172.29 171.679
172.29 -238.679 -238.474 -247.508 -245.647 -270.365 -247.646 -245.825 -268.809 -264.874
143.613 -290.14 -255.419 -280.57 -269.652 -246.867 -355.04 -361.54 -345.409 159.595
-437.748 -446.459 -467.734 -459.523 -379.66 -387.126 -262.123 -289.411 -418.642 -411.142
-364.998 -384.093 -258.523 -265.557 -260.566 -285.107 -288.39 -328.068 -322.463 -264.244
-256.185 -264.788 -273.334 -281.061 -291.235 -296.806 -300.403 -190.626 -211.239 -213.859
-203.496 -198.338 -173.709 -180.421 -112.989 -125.108 -136.098 -124.603 -155.152 -146.03
-183.723 -231.506 -252.238 -208.148 -207.267 -204.211 -203.023 -198.426 -209.436 -211.136
-338.589 -343.113 119.131 111.573 112.941 120.242 5.19165 11.5427 118.123 110.937
138.547 123.913 110.295 126.994 14.605 7.89767 -10.8163 -3.49706 -17.8144 -24.971
-40.4348 -36.4258 -69.1403 -57.3241 -39.5692 -50.9176 -36.4245 -17.8102 -145.956 -153.772
-111.977 -128.284 -181.997 174.117 179.547 183.655 176.094 -118.458 -80.5952 -49.6143
-83.4397 -621.724 -565.714 -586.789 -637.933 -128.6 -138.34 -126.032 -149.522 -242.019
29.5953 38.4649 31.0904 20.8332 16.6314 -104.452 -100.754 -36.2565 -25.08 -12.9712
-20.9859 -30.3433 144.333 95.6418 91.2313 93.4391 98.006 124.85 128.101 174.909
172.885 173.507 174.909 172.885 -262.342 -259.757 -272.074 -268.677 -264.522 175.427
148.557 142.832 146.023 152.316 160.622 163.51 -280.404 -280.404 165.956 165.044
160.672 173.816 171.284 172.087 163.626 159.728 160.036 164.156 -244.027 -251.049
-261.109 -264.009 -258.262 -255.61 -242.37 -238.456 -249.414 -253.185 -255.291 -249.317
-172.783 -190.095 -221.297 -238.469 -243.265 -223.607 -176.983 -190.721 -191.337 -176.589
-216.97 -197.098 -193.096 -211.903 -151.269 -149.025 -160.938 -161.422 -144.543 -158.979
-292.515 -304.138 -311.459 -288.626 -288.868 -288.868 168.763 172.103 173.354 169.924
180.963 180.884 179.266 181.059 -284.828 -284.137 -266.495 -269.316 -282.693 -285.281
-279.94 -277.28 180.884 -114.189 -107.267 -99.9172 -94.1156 -102.538 -122.471 -127.374
-106.652 -121.318 -307.375 -310.274 -310.274 -323.519 -328.969 -328.969 -323.519 -316.548
-316.548 -333.822 -330.053 -344.005 -339.68 -333.155 -320.087 -374.242 -377.083 -375.757
-374.467 -370.082 125.811 126.468 -340.227 -354.849 -350.489 -378.365 -5.094 186.424
184.459 190.877 192.943 154.43 155.213 149.509 133.496 -304.228 -308.454 -307.098
-315.119 -311.152 -316.538 -320.774 -322.481 -300.617 -305.571 -305.792 -309.605 -315.708
-113.26 -101.433 -55.8124 -51.5442 -85.3243 -73.6611 -374.467 -51.5414 -452.662 -472.793
172.123 176.189 -521.285 -649.425 -549.544 -102.115 -138.789 -285.072 -245.377 -221.656
-255.908 -275.675 -488.225 -483.327 -523.374 -573.572 -425.051 -259.628 -297.96 -299.581
-472.787 147.23 152.668 168.743 167.828 145.29 138.03 141.677 148.319 167.828
165.073 163.905 165.572 166.038 168.975 166.806 164.682 168.061 170.577 167.152
170.317 171.989 169.009 170.58 172.764 170.548 172.413 167.583 166.698 165.753
172.146 -254.75 -241.653 -251.12 -267.618 -311.381 -295.234 -310.145 173.987 -231.918
-237.713 -226.764 -230.972 -242.288 -311.196 -311.139 -296.784 -285.593 -276.534 -310.145
-311.381 -259.297 -262.272 -259.897 -273.321 -297.563 -255.201 -163.851 -138.561 -118.957
-145.484 -160.651 -180.251 -255.001 -248.789 -263.179 -238.01 -259.415 -204.931 -255.398
-257.578 -263.185 -259.429 173.82 173.853 170.598 161.414 158.128 159.031 161.917
159.465 163.113 173.853 -233.811 -218.445 -176.606 -176.464 -201.023 -201.732 -189.147
-178.446 -189.937 -122.505 -135.379 -116.014 -135.379 -141.81 -158.016 -155.899 -127.356
-135.379 -116.014 164.872 170.018 167.093 164.105 -300.708 172.152 172.086 172.152
172.086 166.928 170.036 -436.619 -412.352 -418.306 -440.392 -404.078 -426.569 -347.869
-370.183 -365.45 -347.383 -389.942 -396.042 -348.631 -330.433 -338.003 -354.329 -298.846
-301.715 -287.999 -290.506 -134.703 -136.37 83.3588 71.4543 74.3163 84.9881 28.8434
32.6647 81.3806 68.9454 79.1948 64.547 65.2872 79.0894 -56.5084 -30.9509 52.4701
62.2374 49.5114 41.5008 -12.4027 -6.70805 10.5223 9.99084 169.19 112.058 108.522
117.953 123.491 133.068 140.578 39.1758 50.166 46.0511 81.8666 94.2752 85.9617
48.6009 49.8827 59.2124 58.9766 166.555 170.747 172.432 173.263 155.115 148.635
126.854 127.586 133.899 133.031 128.719 135.332 171.404 168.672 168.701 -209.641
-225.68 -208.699 -225.68 -225.179 -243.378 -208.247 -225.68 -208.699 -243.378 -224.978
-232.729 -231.67 -239.132 -209.997 -221.235 -230.142 -236.512 -232.434 -224.436 141.724
142.652 146.963 146.099 162.567 160.267 156.791 158.752 145.747 147.184 152.044
150.238 227.097 210.769 209.932 237.714 238.737 238.737 173.83 187.477 222.779
131.289 118.691 131.629 155.46 153.565 150.539 154.09 146.128 138.151 175.063
183.934 173.373 157.354 157.088 156.282 238.737 180.013 178.239 172.217 169.523
170.047 172.31 178.225 178.005 177.518 176.453 176.743 169.289 169.386 166.66
165.953 165.925 164.837 164.079 165.13 165.046 157.078 153.809 154.839 157.622
163.148 163.889 180.013 178.225 -311.644 -311.648 -279.675 -260.498 -311.648 -301.375
-255.773 -260.579 -311.648 165.975 164.26 157.069 156.829 161.313 159.63 159.222
160.366 164.093 162.573 163.851 165.354 165.415 163.073 169.235 170.954 169.24
167.57 -446.955 -426.728 -457.501 -456.696 -412.186 -403.935 -396.414 -403.656 -393.337
-400.509 -397.298 -390.651 -430.274 -423.043 -416.082 -422.241 -430.274 -323.736 -308.723
-317.77 -331.386 -383.489 -328.357 -343.297 -456.696 -430.274 5.64961 -17.7958 5.65398
-354.223 -356.443 -353.895 -349.769 93.8098 94.4079 -359.594 -358.463 -0.196209 -356.443
-353.895 -359.594 183.244 170.733 176.24 188.794 188.384 187.875 189.725 190.421
186.698 185.105 279.951 269.609 248.097 256.06 71.2768 91.2566 71.9237 42.3175
35.9079 -430.577 -391.866 -326.749 -343.819 269.845 212.763 230.453 -453.09 -514.39
189.725 172.885 173.176 166.324 170.651 183.137 187.473 164.051 165.808 171.089
168.668 168.139 167.341 177.462 176.553 177.883 181.364 180.638 177.331 175.918
179.087 -311.986 -316.548 -311.986 -332.012 -332.711 -332.012 -312.705 -318.865 -323.579
-318.096 -349.969 -344.799 -334.447 -340.17 -334.589 -329.7 -355.013 -357.359 -363.298
-357.799 -351.78 -341.117 -345.883 137.018 137.719 141.495 144.171 140.287 164.569
160.438 -409.801 -409.801 -402.021 -396.659 -388.643 -380.955 -387.205 -394.515 -362.816
-368.814 -374.668 -380.899 73.6398 96.7457 107.887 82.7996 150.763 121.239 205.402
214.142 176.92 172.457 180.553 186.416 186.903 207.589 -311.583 -332.902 -338.349
-333.761 -329.684 141.495 -409.801 -471.39 -495.456 -487.128 -465.273 169.803 172.687
186.318 180.978 180.807 177.291 176.775 -477.459 -500.573 -362.04 -409.073 -378.755
-341.052 -326.843 -364.857 -247.797 -269.204 -309.486 -279.379 -354.057 -374.089 -438.3
-435.331 -352.181 -379.324 -378.826 -356.499 -441.851 -347.526 -382.427 -355.153 -379.429
169.144 172.983 177.496 168.067 168.066 162.351 161.215 174.318 178.341 177.531
174.007 174.163 172.274 170.542 167.796 174.007 168.067 177.496 174.007 172.274
-314.988 -311.704 -288.298 -310.145 -272.389 -311.673 -249.324 -269.328 -278.124 -265.042
-257.557 -282.021 -290.361 -261.659 -274.045 -256.719 -253.97 -240.187 -267.055 166.026
167.333 173.447 171.396 171.396 173.892 176.05 177.79 172.593 175.118 -454.743
-452.78 -452.753 -417.799 -418.306 -426.659 -419.818 -411.651 -452.59 -443.853 -435.223
-428.377 -435.654 167.333 171.396 -454.743 -426.659 -443.853 -435.654 160.412 169.968
94.5735 117.518 109.025 224.787 219.401 225.027 198.262 -550.7 -616.135 -625.002
-564.248 173.039 174.367 198.66 197.243 179.193 178.847 182.738 184.162 -458.826
-479.026 -507.094 -489.88 267.277 237.041 185.666 106.489 250.134 175.779 177.416
179.737 179.155 175.187 178.318 174.752 174.668 184.111 186.274 189.199 187.348
217.542 214.498 204.545 205.756 209.642 204.737 198.839 194.477 198.748 214.758
202.694 206.766 219.008 224.127 233.44 228.352 203.052 211.33 124.979 150.634
118.221 96.5128 -713.849 -426.03 -354.994 -123.82 -73.4346 -12.456 -36.9752 -529.754
-600.182 -591.294 -850.103 -726.002 205.756 233.44 -28.3163 -52.9317 -135.235 -91.4143
-52.9316 55.7167 18.7957 44.4473 -52.9319 -135.236 179.516 178.111 178.258 178.628
176.686 175.209 178.112 178.258 -45.8038 -43.7609 -54.1163 -55.0607 -104.852 -34.0419
-45.7854 -76.2384 -53.4643 -45.816 -58.9314 -66.6894 -22.4893 -32.1471 -154.189 -129.618
-125.124 -153.03 -312.116 -215.073 -226.956 -179.351 -171.62 -212.699 -219.973 -403.637
-114.176 -170.81 149.661 186.138 38.209 52.9432 195.182 203.88 142.533 166.807
154.495 180.99 190.791 193.95 171.299 151.113 -117.014 -231.02 0.651523 0.604789
0.51701 0.504545 0.438053 0.393045 0.746405 0.82064 0.712605 0.898861 0.733137 1.26813
-0.469675 -3.31168 -2.61928 -10.9173 -12.0583 -11.7656 -5.01504 -3.26089 -9.9116 -5.86006
-59.3399 -61.4183 -61.484 -59.3959 -64.1063 -66.6072 -68.3007 -65.6628 3.22267 4.84512
5.24798 4.22699 4.4572 4.64427 4.43639 1.99575 3.07464 -22.168 -21.0289 -8.50966
-12.3154 -14.9203 0.837141 0.985575 0.929636 1.22579 1.03303 0.890399 1.04593 1.04649
1.36483 1.3726 1.1687 1.17387 1.54177 4.83425 1.61834 1.66815 3.21901 2.91674
6.02474 3.91724 2.4262 2.73662 15.4348 8.79394 7.47216 34.8999 35.8977 33.2266
31.1738 21.6622 21.5648 25.3431 25.5012 21.8563 23.4585 20.2166 19.0509 0.720256
3.84238 4.60581 4.54016 4.04154 3.44132 2.97134 -3.25003 3.86747 1.938 2.34091
2.10203 1.03552 0.904231 1.25787 1.34777 0.89196 0.990925 1.14034 1.53414 2.53405
2.35097 2.13447 1.345 1.50708 1.64699 1.44421 1.61364 1.68391 1.83798 1.66425
1.5029 3.89396 5.08227 3.74154 1.95804 2.38328 2.33008 1.98054 2.37097 1.12406
1.13417 1.13793 0.655461 0.235605 0.64508 0.238831 1.85194 2.04003 4.15495 3.21083