# vtk DataFile Version 2.0
sampleSurface
ASCII
DATASET POLYDATA
POINTS 9879 float
6 2.24045e-22 1 6 -4.23516e-22 0 5 0 0 5 4.23516e-22
0.5 5 5.02844e-23 1 7 1.69508e-17 0 6 2.40786e-23 1
7 -4.23516e-22 1 8 -1.0754e-16 0 8 4.23516e-22 1 9
-7.28995e-17 0 9 4.23516e-22 1 10 5.03714e-17 0 10 -4.23516e-22
1 11 -1.10109e-16 0 11 0 1 12 1.14673e-16 0
12 0 1 13 1.07357e-16 0 13 -2.11758e-22 1 14
-3.31971e-17 0 14 0 1 15 0 1 15 5.68977e-17
0 -5 -1.61559e-27 0 -5 1.61559e-27 0 -5 0 0.5
-5 8.07794e-28 0.5 -2.89285 0 0 -3.00033 0 0 -3.00033
-8.47033e-22 0.0932873 -1.00051 -1.01779e-17 0.124742 -0.875522 0 0.124691 -0.875461 -8.40257e-19
0 -1.00046 0 0 0.015625 1.94517e-24 2.2091e-05 5.35603e-05 -1.21492e-24 0.0155233
0.0156432 3.30872e-24 0.0155555 1.00057 -5.42101e-19 0.0152422 1.00056 0 0.0308735 1.03181
0 0.0308728 1.03183 -1.89735e-19 0 1.00058 0 0 2 1.21939e-17
0.125 2 2.01948e-28 0.25 2.25 0 0.25 2.25 -1.26744e-17 0
2 2.01948e-28 0 3 2.86199e-17 0.25 3 3.16479e-17 0.5 3.5
2.01948e-28 0.5 3.5 -1.71188e-17 0 3 2.01948e-28 0 4 0
0 4 0 0 4 5.4967e-18 0.5 4 1.00974e-28 0.5
6 2.52435e-29 1 5 0 1 6 2.96289e-24 1 5
3.35588e-25 2 6 4.23516e-22 2 7 4.23516e-22 2 8 0
2 9 -4.23516e-22 2 10 0 2 11 2.11758e-22 2
12 0 2 13 -2.11758e-22 2 14 0 2 15
2.11758e-22 2 -5 0 1 -5 0 1.5 -5 0
1.5 -5 0 1 -1.00051 0 1.00028 -1.0005 1.69407e-21 1.07098
-0.875582 -3.38813e-21 1.04431 -0.875573 0 1.00033 -0.000176494 0 1.00043 -0.000187004
1.35525e-18 1.03171 0.0310738 0 1.03178 0.0310423 5.42101e-20 1.0005 0.0154335 0
1.00047 2.25 0 1 2 5.03191e-18 1 2 -8.15581e-18 1.125
2 6.36148e-18 1.25 2.25 0 1.25 3.5 0 1 3
-7.24998e-18 1 3 -1.28933e-17 1.25 3 -3.74554e-18 1.5 3.5 0
1.5 4 0 1 4 2.0972e-17 1.5 4.50019 3.38813e-21 1.50011
4.50001 3.17637e-22 1.0073 4 -1.00974e-28 1 5 -4.34409e-17 1.5 5
-2.52435e-29 2 5 1.60269e-22 2 5 4.23516e-22 2.5 5 0
3 6 -4.23516e-22 3 7 4.23516e-22 3 8 4.23516e-22 3
9 0 3 10 0 3 11 -2.11758e-22 3 12
2.11758e-22 3 13 -2.11758e-22 3 14 2.11758e-22 3 15 0
3 -5 0 2 -5 0 2 -5 0 2
-0.750281 -2.71051e-20 2.0005 -0.996618 -5.0822e-21 2.00034 -0.884887 3.38813e-21 2.25032 -0.750178
-2.73083e-17 2.25039 0.124965 6.77626e-21 2.00046 0.0589837 -3.38813e-21 2.00046 0.102874 -1.69407e-21
2.25032 0.249982 -1.24887e-17 2.25032 0.249997 1.35525e-20 2.00047 1.0005 1.35525e-20 2.00056
1.00037 1.35525e-20 2.25063 1.25045 -1.35525e-20 2.25054 1.25043 -1.69813e-17 2.00047 1.12546
-1.35525e-20 2.00051 2.00018 3.38813e-21 2.00013 2.00027 1.07133e-17 2.25026 2.25027 6.77626e-21
2.25023 2.25017 6.77626e-21 2.00011 3.5 0 2 3.00014 -1.11944e-17 2.00005
3.00014 2.41235e-17 2.25008 3.00001 2.0117e-21 2.49701 3.5 0 2 4
-1.32349e-23 2 4.00001 0 2.00871 4.5 -3.02248e-22 2.5 4.5 2.52435e-29
2.5 4.50017 2.11758e-22 2.00014 -5 0 4 -4.00035 0 4
-4.0004 -5.66496e-18 3.5 -4.00039 0 3 -4.5002 0 3 -5
-9.5459e-22 3 5 -8.47033e-22 3.5 5 2.1923e-22 4 5 1.90287e-22
4 6 4.23516e-22 4 7 0 4 8 0 4
9 4.23516e-22 4 10 0 4 11 2.11758e-22 4 12
2.11758e-22 4 13 0 4 14 2.11758e-22 4 15 0
4 -5 0 3 -5 0 4 -0.750077 -1.69407e-21 3.00019
-0.975165 6.35275e-22 3.00002 -0.50002 0 3.43551 -0.50014 0 3.00035 0.249985
0 3.00023 0.097637 1.69407e-21 3.00023 0.500042 3.38813e-21 3.26572 0.500014 0
3.00034 1.00005 -1.35525e-20 3.00048 1.00018 8.47033e-22 3.50026 1.50019 0 3.50023
1.50022 -1.55041e-17 3.00052 1.2501 0 3.00055 2.00039 0 3.00045 2.00025
6.77626e-21 3.50028 2.50024 -6.77626e-21 3.50026 2.50027 -2.15688e-17 3.00027 2.25034 0
3.00035 3.0002 -1.69407e-21 3.00018 3.00017 9.52404e-18 3.50018 3.50015 3.38813e-21 3.50016
3.50018 0 3.00016 4.00014 -6.90484e-17 3.50015 4.41401 8.47033e-22 3.50003 4.5
2.24255e-22 3 4.5 0 3 4.00015 0 3.00016 5 0
4 -5 -4.56216e-21 5 -4.00031 0 5 -3.00034 1.35525e-20 5.00001
-3.0004 2.50722e-18 4.5 -3.00052 0 4 -3.50051 -3.61446e-17 4 5
-5.3804e-23 4 4.5 0 4 4.01315 -1.98523e-22 4 6 -1.77009e-22
5 7 8.49641e-23 5 8 -2.44576e-22 5 9 -1.79481e-22 5
10 -8.26783e-24 5 11 3.71066e-23 5 12 7.40495e-23 5 13
-7.46022e-23 5 13 -3.57483e-23 5 14 -2.11758e-22 5 15 0
5 -5 1.00974e-28 5 0.5 0 4 0.499998 0 4
0.5 0 4 1 -1.61559e-27 4 1 -1.61559e-27 4 1.5
-5.24977e-23 4 1.5 0 4 2.00017 -3.38813e-21 4.00019 2 -4.13239e-17
4.5 2.5 0 4.5 2.50016 0 4.00018 3 0 4
3 2.76547e-17 4.5 3.5 -2.52435e-29 4.5 3.5 0 4 5
0 5 4 0 4 4 -3.3529e-17 4.5 4 1.26218e-29
5 6 3.15544e-30 5 7 0 5 8 0 5
9 3.9443e-31 5 10 0 5 11 -9.86076e-32 5 12
-4.93038e-32 5 13 1.2326e-32 5 -5 -1.50785e-21 6 -4.00028 0
6 -3 -2.11758e-22 6 -2 -2.11758e-22 5 -2.50019 3.01205e-17 5.00003
-2 0 6 -1 -2.35712e-17 5 -1.5 1.39417e-17 5 -1
8.47033e-22 6 -1.46255e-06 1.4195e-17 5 -0.500002 2.00704e-17 5 -4.41788e-07 4.23516e-22
6 1 1.75768e-17 5 0.499999 -4.03442e-18 5 1 0 6
2 -1.6111e-22 6 1.5 -2.46127e-23 5 14 -2.49584e-23 6 15
6.49997e-23 6 -5 0 6 2 -1.00974e-28 6 2 -6.34437e-17
5 1.5 4.03897e-28 5 3 5.04871e-29 6 3 -2.10964e-17 5
2.5 0 5 4 -1.26218e-29 6 3.5 2.52435e-29 5 5
-6.31089e-30 6 6 -3.15544e-30 6 7 1.57772e-30 6 8 7.88861e-31
6 9 -3.9443e-31 6 10 0 6 11 0 6
12 -2.46519e-32 6 13 1.2326e-32 6 14 0 6 15
-1.52652e-17 6 -5 -6.17313e-21 7 -4.00025 1.35525e-20 7 -3 6.2323e-23
7 -3 5.04871e-29 7 -3 1.09771e-22 7 -2 4.23516e-22 7
-1 -4.23516e-22 7 -6.20385e-08 0 7 1 0 7 2
0 7 -5 -2.52435e-29 7 -3 0 7 2 5.04871e-29
7 3 2.52435e-29 7 4 0 7 5 6.31089e-30 7
6 -3.15544e-30 7 7 0 7 8 3.9443e-31 7 9
0 7 10 -9.86076e-32 7 11 0 7 12 1.2326e-32
7 13 0 7 14 0 7 15 -1.08141e-17 7
-5 1.7064e-23 8 -4 0 8 -3 1.32733e-22 7 -3
0 8 -2 0 8 -1 -4.23516e-22 8 -4.65216e-09 0
8 1 0 8 2 0 8 -5 7.6473e-18 8
2 -2.52435e-29 8 3 0 8 4 0 8 5
-6.31089e-30 8 6 1.57772e-30 8 7 0 8 8 3.9443e-31
8 9 0 8 10 9.86076e-32 8 11 0 8
12 1.2326e-32 8 13 0 8 14 0 8 15
0 8 1.98072e-05 -1.47443e-18 0.0155232 -6.78597e-10 6.46235e-27 0 -0.015625 1.89557e-19
0 -0.015607 0 0.0155222 0.015625 6.46235e-27 0 0.984621 -2.64274e-19 1.00027
1.00023 6.77626e-21 1.00025 1.00022 0 0.984609 0.984609 0 0.984627 -0.875589
0 0.875281 -1.00051 0 0.875232 -0.000168606 -7.04731e-19 0.984785 -0.0157783 0
0.984748 -0.0157891 0 1.0004 0.984964 -4.87891e-19 0 0.984951 0 0.0152386
0.0154375 2.71051e-20 0.984823 0.500347 0 0 0.484697 -1.40946e-18 0 0.484699
-2.71051e-20 0.0154073 0.50035 2.71051e-20 0.0153902 6.85113e-05 -6.74075e-34 0.497067 0.00351742 0
0.497921 0.00351735 -6.16298e-33 0.497919 0.500935 -5.29396e-23 0.500103 0.500923 1.81265e-19 0.484474
0.485343 0 0.48448 0.485354 -5.29396e-23 0.500107 -1.0005 0 1.12529 -0.875598
0 1.12535 -0.847656 0 1.75035 -0.875511 -8.67701e-18 1.75034 -1.00046 8.00954e-18
1.75027 -1.00043 4.23516e-22 2.00034 -0.000137327 0 2.00046 -0.000174407 -6.77626e-21 1.87558
-0.125203 0 1.87555 -0.125185 -4.78404e-18 2.0005 1.00026 0 1.03153 0.969013
6.77626e-21 1.00028 0.969038 8.80914e-19 1.03156 0.0614109 0 1.87557 -0.0314004 0
1.00037 -0.0314207 0 1.03167 -0.750309 -7.75205e-18 1.87547 -0.750381 0 1.75039
0.124961 0 1.87556 1.00049 5.54298e-18 1.87554 0.875516 1.35525e-20 1.87556 0.875507
0 2.00058 -0.442444 -4.23516e-22 0.0622773 -0.437776 0 0.0622817 -0.437709 -2.11758e-22
0.0234443 -0.0040072 3.0527e-19 0.500638 -0.000168277 0 0.500646 -2.94017e-06 0 0.497049
-0.00322378 0 0.496279 -0.492468 -5.29396e-23 0.500175 -0.469803 -2.11758e-22 0.500181 -0.469837
0 0.468841 -0.501073 0 0.468827 -0.501061 2.64698e-23 0.480492 -0.000101869 -1.47052e-19
0.504366 -0.00397949 -2.01948e-28 0.504355 -0.501028 0 0.522018 -0.501022 0 0.531434
-0.469779 0 0.531436 0.00364412 0 0.500984 0.00375691 0 0.504522 0.485366
0 0.514811 0.485366 0 0.515734 0.500948 0 0.515729 0.500947 -1.65436e-24
0.515118 -0.500391 3.52366e-19 0.0622223 -0.437669 4.23516e-22 0 -0.500304 0 0
-0.501042 0 0.500173 -0.50037 -5.42101e-20 1.00067 -0.43782 0 1.00061 -0.437881
5.42101e-20 0.938131 -0.500433 0 0.93818 0.500963 -5.14996e-19 0.984633 0.485343 0
0.984612 0.485309 -1.35525e-20 1.00027 0.500901 2.71051e-20 1.00034 -2.0003 0 0
-2.00031 0 0.249984 -1.75035 -6.77626e-21 0.249978 -1.75034 -2.12097e-18 0 -1.12549
1.69407e-21 0.0567975 -1.12551 -3.38813e-21 0.124883 -1.1051 0 0.12486 -2.00053 -4.06576e-19
0.750021 -2.00052 0 1.00001 -1.75043 0 1 -1.75044 1.35525e-20 0.750004
1.03145 0 1.00022 1.03142 0 0.968935 1.0002 -6.77626e-21 0.968969 -1.12548
0 0 -1.12547 0 0.875178 -1.12544 0 1.00021 -0.562867 -4.63496e-18
0 -0.562923 0 0.0621015 -0.875622 1.40946e-18 0.499992 -0.875629 -1.40946e-18 0.43746
-0.875614 0 0.37493 -1.00058 -1.35525e-20 0.374847 -1.0006 -6.77626e-21 0.499982 -0.501071
0 0.459931 -0.501067 7.5513e-19 0.437262 -0.563478 0 0.437296 -0.563493 0
0.500081 1.875 7.07317e-18 0 1.875 0 0.125 2 -9.02096e-18 0.875
1.875 -1.00974e-28 0.875 1.875 0 1 -0.501021 2.64698e-23 0.532727 0.516516
0 0.515723 0.516516 -1.65436e-24 0.515322 -1.00059 3.04932e-18 0.625092 -0.875599 0
0.625021 -0.875605 0 0.562503 -0.563001 -5.42101e-20 0.938195 -0.562935 0 1.00068
-0.501004 6.60686e-20 0.562681 -0.563465 6.77626e-21 0.562645 0.515999 -2.71051e-20 0.0153741 0.515996
1.89735e-19 0 1.00002 0 0.499997 1.00004 6.91179e-19 0.484354 0.984415 3.38813e-21
0.484354 0.984397 0 0.499997 0.516504 -1.57919e-19 0.500096 0.516494 -4.23516e-22 0.484467
0.984397 0 0.515625 1.00002 0 0.515625 0.516455 3.25261e-19 1.00046 0.516567
-2.71051e-20 0.984687 -0.000486907 -2.11758e-22 0.751673 0.0150628 0 0.751704 0.0151069 -2.11758e-22
0.736039 -0.000466544 1.79846e-18 0.73608 0.250631 -1.05879e-22 0.499142 0.234996 0 0.4991
0.235042 0 0.51471 0.250685 1.77115e-18 0.514757 0.234396 1.59578e-18 0.751475 0.250021
2.64698e-23 0.751472 0.250098 0 0.735925 0.234416 0 0.735938 0.500674 0
1.03185 0.469677 2.71051e-20 1.00028 0.46947 -2.71051e-20 1.0318 -0.000487113 0 0.767278
0.0150573 0 0.767313 0.249988 1.48893e-23 0.985961 0.249988 0 0.985377 0.234363
0 0.98538 0.234363 8.27181e-25 1.00097 0.234889 9.09899e-24 1.00097 0.250006 2.3521e-18
0.76703 0.234384 0 0.767027 0.249988 -2.64698e-23 1.00096 0.250614 0 0.249941
0.237135 1.32349e-23 0.249938 0.250669 1.98523e-23 0.26291 0.484921 5.42101e-19 0.249634 0.484944
-5.42101e-20 0.265243 0.500584 0 0.265233 0.500562 5.42101e-20 0.249623 0.25266 0
[...]
POINT_DATA 9879
FIELD attributes 1
U 3 9879 float
24.6061 -0.0023751 0.524487 25 0 0 25 0 0 24.3492 -0.0340717
1.20709 24.0011 0.000508038 1.62939 25 0 0 24.6061 -0.0023751 0.524487
24.6122 -0.00366293 0.540336 25 0 0 24.619 -0.00406656 0.536575 25
0 0 24.6235 -0.00430011 0.528744 25 0 0 24.628 -0.00449986
0.51983 25 0 0 24.6331 -0.00462607 0.510245 25 0 0
24.6383 -0.00467945 0.500305 25 0 0 24.6431 -0.00469989 0.490432 25
0 0 24.6483 -0.00470312 0.479458 24.6513 -0.00470114 0.473345 24.8591 -0.0079158
0.196183 25 0 0 25 0 0 25 0 0
25 4.76934e-13 -8.73985e-11 25 0 0 25 0 0 25.0003
4.32282e-06 -0.000776281 25.2115 3.68855e-05 -0.0845834 25.3146 -0.000292369 -0.127663 25 0
0 25 0 0 25.0037 -9.2129e-05 0.000226413 27.6326 -0.0626491 0.149345
27.5872 -0.0648732 0.15943 24.6668 -0.0683445 0.103072 24.7141 -0.0780401 0.232519 24.71
-0.073426 0.229699 25 0 0 25 0 0 24.8719 -0.0678397
0.754556 24.8688 -0.0856187 1.68059 24.8207 -0.0902205 1.60214 25 0 0
25 0 0 24.8742 -0.0848453 1.23247 24.315 -0.0819828 2.8489 24.1323
-0.0316814 1.5887 25 0 0 25 0 0 25 0
0 25 0 0 24.1968 -0.0375205 1.48185 24.1968 -0.0375205 1.48185
24.6061 -0.0023751 0.524487 24.0011 0.000508041 1.62939 24.6061 -0.0023751 0.524487 24.8884
0.0121951 0.563434 24.8091 0.00493736 0.38046 24.7936 0.0052444 0.374889 24.7876 0.00547887
0.365761 24.7843 0.00558674 0.35925 24.7819 0.00561889 0.354916 24.7799 0.00565702 0.351734
24.7784 0.005647 0.349367 24.777 0.00560345 0.347431 24.7754 0.00556827 0.346834 24.7744
0.00555566 0.34718 25 0 0 25 0 0 25 3.1368e-13
-6.974e-11 25 4.52532e-13 -1.11438e-10 24.8214 0.00223338 -0.0937916 24.8205 0.00213888 -0.0745352
24.7456 0.00324178 -0.0827426 24.742 0.00337007 -0.099043 23.0983 0.0659703 2.07092 23.3024
0.0589264 1.88205 23.2894 0.0630891 2.06624 23.0815 0.0707146 2.283 23.0716 0.0688593
2.19224 23.0126 0.071906 6.95526 23.1566 0.106632 8.71768 23.6467 0.170786 6.40623
24.1659 0.131895 3.96992 23.9294 0.110101 3.99217 23.634 0.0107373 2.35174 23.0748
0.00777133 5.29463 23.6412 0.0816389 4.17931 24.4906 0.0598176 2.18987 24.4106 0.0258156
1.55804 23.6615 0.00690259 2.26004 24.3406 0.0281941 1.53986 24.2937 0.0287516 1.53145
23.7041 0.00400519 2.19528 23.6615 0.00690258 2.26004 24.3547 0.0235456 1.31248 24.8884
0.0121951 0.563434 24.8884 0.0121951 0.563434 25.0233 0.00684325 0.296963 25.0226 0.0038971
0.165539 25.0184 0.00230588 0.118305 25.0149 0.00273388 0.109847 25.0132 0.00294575 0.107085
25.0112 0.00310115 0.10666 25.0085 0.00322814 0.107349 25.0056 0.00333919 0.108634 25.0025
0.00336427 0.110362 24.9996 0.00335063 0.112262 24.997 0.00334372 0.115031 24.9958 0.00334351
0.116872 25 0 0 25 0 0 25 1.64915e-13 -2.74174e-11
24.8794 0.0011503 0.0560753 24.9071 0.000759854 0.0281273 24.92 0.00066666 0.0398585 24.9106
0.000794722 0.051479 24.8116 0.00375408 0.277613 24.8144 0.00345032 0.253902 24.8773 0.00205923
0.18257 24.879 0.00230804 0.208908 24.8224 0.00401841 0.306053 24.8849 0.00602829 0.46379
24.9167 0.00339537 0.312536 24.9284 0.00371025 0.336379 24.8998 0.00666064 0.499398 24.8907
0.00662199 0.497703 24.914 0.00914414 0.611133 24.9488 0.00496403 0.40868 24.9562 0.00567175
0.437046 24.9252 0.0105189 0.666756 24.9525 0.0117272 0.624569 24.9522 0.0150776 0.728495
24.9722 0.00900418 0.483761 24.9865 0.00522444 0.330169 24.9525 0.0117271 0.624569 24.9421
0.0136451 0.621598 24.9435 0.0135146 0.616342 25.0239 0.0073683 0.326651 25.0239 0.0073683
0.326651 24.928 0.0151194 0.637368 25 1.11334e-13 5.95042e-12 24.9992 7.82031e-06 0.000420835
24.9989 9.49874e-06 0.000161337 24.9988 9.93595e-06 -0.000252265 24.9996 4.26067e-06 -0.000207758 25
1.40674e-13 -6.82351e-12 25.0217 0.00229564 0.104865 25.0218 0.00123181 0.065985 25.0218 0.00123181
0.065985 25.0257 0.00131641 0.0592169 25.0286 0.00143049 0.0599148 25.03 0.00152173 0.0608534
25.0301 0.00158036 0.0611402 25.0298 0.00161919 0.0609705 25.0294 0.00164736 0.0607757 25.0291
0.00167156 0.0606509 25.0288 0.00169099 0.0606379 25.0287 0.00169751 0.060646 25.0288 0.0016969
0.0606114 25 0 0 25 0 0 24.9592 0.000321568 0.0351483
24.9651 0.000249982 0.0260823 24.9734 0.000240588 0.0342747 24.9567 0.000390033 0.0459951 24.9514
0.00071503 0.0911844 24.9522 0.000631159 0.0803752 24.9677 0.00056633 0.081165 24.9567 0.000775758
0.101969 24.9665 0.000952684 0.125739 24.9829 0.000470682 0.0762156 24.9899 0.000544362 0.0866547
24.9774 0.0011251 0.143811 24.9706 0.0010963 0.141051 24.9867 0.00131778 0.158401 24.9968
0.000632976 0.094556 25.0029 0.000740743 0.10084 24.9941 0.00156801 0.166517 24.9893 0.00155357
0.171063 25.003 0.00191663 0.174122 25.009 0.000945628 0.106312 25.015 0.0011751 0.109554
25.013 0.00246805 0.181657 25.0189 0.00146168 0.109177 25.0202 0.00195147 0.110293 25.0222
0.00409224 0.183189 25.0222 0.00409224 0.183189 25.0197 0.00302379 0.181995 25.0218 0.00123181
0.065985 25 6.0313e-14 6.89651e-12 24.9996 6.32313e-06 0.000725767 24.9988 1.53325e-05 0.00204107
24.9979 1.86192e-05 0.00231256 24.997 2.1319e-05 0.00194302 24.9983 1.37643e-05 0.000838491 25.0218
0.00123181 0.065985 25.0201 0.00116647 0.0748964 25.0185 0.000801669 0.070971 25.0242 0.000522847
0.0290883 25.0262 0.000650837 0.0279282 25.0271 0.000749051 0.0264852 25.0276 0.00082062 0.025122
25.0281 0.000874818 0.0240587 25.0284 0.000914723 0.023403 25.0287 0.000948226 0.023087 25.029
0.00097231 0.0229862 25.029 0.00097231 0.0229862 25.0296 0.000985177 0.0230753 25.03 0.000990026
0.023164 25 0 0 24.9882 0.000229483 0.0426264 24.9882 0.000229483 0.0426264
24.9882 0.000229483 0.0426264 24.992 0.000280282 0.0510842 24.992 0.000280282 0.0510842 24.997
0.000321649 0.0578301 24.997 0.000321649 0.0578302 25.0022 0.000372323 0.0628214 25.0051 0.000233743
0.0422071 25.009 0.000270488 0.0444738 25.007 0.000427207 0.0665277 25.0116 0.000522035 0.0690013
25.0125 0.000317515 0.0457614 25.0155 0.000404738 0.0467961 25.0156 0.000649801 0.0706435 25.0212
0.000370865 0.0295883 25.0185 0.000791818 0.070865 25.0176 0.000447632 0.0455157 25.0176 0.00028278
0.0308196 25.0242 0.000522847 0.0290883 25.0262 0.000650837 0.0279282 25.0271 0.000749051 0.0264852
25.0276 0.00082062 0.025122 25.0281 0.000874818 0.0240587 25.0284 0.000914723 0.023403 25.0287
0.000948226 0.023087 25.029 0.00097231 0.0229862 25 2.47228e-14 2.97803e-12 24.9999 5.17358e-06
0.000625202 24.9997 1.19612e-05 0.00156561 24.9974 2.94187e-05 0.00485782 24.9979 2.20451e-05 0.00323884
24.9997 2.07451e-05 0.00319553 24.9964 5.18323e-05 0.00986892 24.9965 4.07356e-05 0.00723194 25.0002
3.21938e-05 0.00569797 24.9972 8.31218e-05 0.0169931 24.996 6.94611e-05 0.0137463 25.0018 4.63582e-05
0.00881987 25.001 0.000118305 0.0241415 24.9982 0.00010609 0.0217834 25.0047 6.22361e-05 0.011799
25.0087 7.97831e-05 0.0138907 25.0035 0.000143186 0.0284522 25.0291 0.000468439 0.0128537 25.0293
0.000473082 0.0129125 25 0 0 25.0087 7.97831e-05 0.0138907 25.0069 0.000154539
0.0290125 25.0035 0.000143186 0.0284522 25.0131 0.00010138 0.0148843 25.0128 0.000206022 0.0313573
25.0099 0.000187028 0.032215 25.017 0.000132983 0.0150756 25.0154 0.000268909 0.0335106 25.0202
0.000180098 0.014895 25.0227 0.000240159 0.0143852 25.0246 0.000301867 0.0136376 25.0259 0.0003504
0.0130484 25.0268 0.000383318 0.0127442 25.0276 0.000407498 0.0126206 25.0281 0.000425829 0.0126047
25.0285 0.000443324 0.0126583 25.0288 0.000458325 0.0127452 25.0291 0.000468439 0.0128537 25.0293
0.000473082 0.0129125 25 9.79027e-15 7.57918e-13 25.0001 4.54934e-06 0.000353267 25.0002 1.02129e-05
0.000837927 25.0002 1.02129e-05 0.000837926 25.0002 1.02129e-05 0.000837927 25.0006 1.69518e-05 0.00160097
25.0016 2.5069e-05 0.00269212 25.0033 3.47255e-05 0.00400604 25.0059 4.55819e-05 0.00526409 25.0093
5.74875e-05 0.00616115 25 0 0 25.0002 1.02129e-05 0.000837926 25.0093 5.74875e-05
0.00616115 25.013 7.15961e-05 0.00658466 25.0165 9.00681e-05 0.00665963 25.0194 0.000114559 0.00651763
25.0218 0.000145068 0.00621606 25.0237 0.000176456 0.0058793 25.025 0.000203083 0.005597 25.026
0.000223807 0.00536302 25.0268 0.000241114 0.00514306 25.0273 0.000256062 0.00495063 25.0277 0.00026932
0.00480258 25.0281 0.000280501 0.00469869 25.0285 0.000289049 0.00463576 25.0289 0.000293154 0.00460864
25 9.67878e-07 0 25.0001 4.36266e-06 0 25.0002 1.02129e-05 0.000837926 25.0003
9.6436e-06 0 25.0009 1.5786e-05 0 25.0019 2.30023e-05 0 25.0037 3.14734e-05
0 25.0062 4.09929e-05 0 25.0094 5.14959e-05 0 25 9.67877e-07 0
25.0094 5.14959e-05 0 25.0129 6.3608e-05 0 25.0162 7.88448e-05 0 25.0191
9.79437e-05 0 25.0215 0.000120695 0 25.0233 0.000143959 0 25.0247 0.00016451
0 25.0257 0.000181104 0 25.0265 0.000194801 0 25.0271 0.00020614 0
25.0276 0.000215625 0 25.028 0.000223293 0 25.0284 0.000228764 0 25.0287
0.000231383 0.00110309 27.6327 -0.0626443 0.149324 25 0 0 25 0
0 27.6716 -0.0603654 0.138792 25 0 0 24.1341 0.185068 5.41729
24.033 0.18498 5.37424 23.7246 0.197959 5.59928 23.8635 0.196177 5.61587 24.7489
0.0036445 -0.155986 24.8363 0.00231211 -0.132744 22.9864 0.0696891 2.1717 23.0014 0.0671797
2.06002 23.0957 0.0641254 1.98067 25 0 0 24.6703 -0.068859 0.103967
22.9751 0.0722082 2.28445 25 0 0 25 0 0 25.3831
-0.0903625 0.193302 25.3323 -0.0900088 0.189561 22.1528 0.045225 4.99297 22.6793 0.0452971
5.2705 22.6787 0.0452965 5.27064 23.4372 -0.205799 11.2456 23.5328 -0.230103 10.8018
23.5823 -0.221319 10.9003 23.4852 -0.196047 11.3327 24.8198 0.00206653 -0.0597438 24.7523
0.00300685 -0.0527112 24.851 0.00141235 0.0399932 24.8558 0.00133936 0.0345799 24.8815 0.00102347
0.0193144 24.9075 0.000754001 0.0276943 24.8169 0.00318081 0.232653 24.7746 0.00421849 0.283036
24.7793 0.00364227 0.234474 24.8144 0.00288528 0.20081 24.3152 0.15896 4.86274 24.2046
0.180023 5.346 24.3486 0.153721 4.78096 24.7751 0.00451367 0.306909 23.1285 0.0613049
1.86445 23.3265 0.0548435 1.70187 24.8566 0.00140818 0.0612182 24.8344 0.0016706 0.0588946
24.7756 0.00482209 0.331533 24.8642 0.00820148 0.576688 24.8527 0.00778748 0.553317 24.8722
0.00598856 0.459059 26.4741 -0.0102137 -0.228902 26.4954 -0.0104579 -0.230377 25.5629 -0.00393817
-0.0867194 22.6756 0.0453802 4.46052 23.1738 0.0460414 4.74776 22.142 0.0452235 4.98722
21.6483 0.0448883 4.74444 24.4405 0.0107511 -1.3081 24.3474 0.0112503 -1.45148 24.5936
0.00879657 -1.55089 24.6635 0.00862257 -1.36023 24.5936 0.00934432 -1.32065 23.6114 0.0397286
4.17191 23.0333 0.0383949 3.863 24.3368 0.0120376 -1.20267 24.2769 0.0126736 -1.18061
24.1376 0.0136065 -1.32199 23.711 0.0465538 5.02887 24.231 0.0410028 4.53121 23.4048
-0.166334 11.691 23.3997 -0.164469 11.7135 23.3539 -0.174286 11.6402 23.3572 -0.175517
11.6248 26.209 -0.00716715 -0.210589 25 0 0 25 0 0
24.4757 0.0105622 -1.25387 24.2282 0.0133052 0.0697427 24.0884 0.0167661 0.163873 23.9696
0.0193142 0.11617 24.1464 0.0151163 0.0158219 24.0283 0.130044 4.76478 23.9942 0.128728
4.73548 24.0214 0.122863 4.51917 24.0584 0.123369 4.50962 25 0 0
25.0163 8.06969e-05 -0.0121076 25.0274 0.000122731 -0.0208877 25 0 0 25.0677
6.17569e-05 -0.0256114 25.1489 0.000135756 -0.0563127 25.1591 0.000119887 -0.0609299 24.9959 0.000140562
-0.0250281 24.9859 0.000165167 -0.0238369 24.9752 0.000283817 -0.034809 24.9908 0.000242574 -0.0390017
23.7156 0.189803 5.38878 22.5465 0.214284 5.75845 22.9375 0.209527 5.73255 25
0 0 24.8912 0.00151588 -0.108637 24.8753 0.00150833 -0.0834577 25 0
0 25.9742 -0.00479195 -0.182048 24.9724 0.00249117 -0.311027 25.0384 0.0020658 -0.322095
25.1066 0.00147114 -0.298099 25.0842 0.000974411 -0.199907 24.9991 0.00153103 -0.214431 24.7286
0.00804338 -1.35944 24.8943 0.00656728 -1.35744 24.9432 0.00605978 -1.01556 24.6584 0.00878325
-0.955415 25 0 0 24.8417 -0.0686976 0.783834 23.0596 -0.0310697 10.2055
23.0783 -0.0338802 10.7838 23.1741 0.132954 9.3192 24.2722 0.0127347 -1.17467 23.3119
-0.184576 11.5684 23.314 -0.185372 11.5579 24.924 0.00197871 -0.20228 24.8601 0.00325579
-0.279765 24.9052 0.00304701 -0.309683 24.2978 0.0117696 -0.0495558 24.3517 0.0104979 0.0054391
24.1625 0.0141514 -1.03709 24.4308 0.0111707 -0.825039 25.284 -0.0896051 0.185798 25
0 0 23.6737 -0.314487 7.63806 23.7822 -0.298393 7.15233 23.7514 -0.302511
7.24575 23.6362 -0.319164 7.75162 23.3941 -0.215601 11.1594 23.4888 -0.238795 10.7037
23.5111 -0.334993 8.28904 23.5454 -0.331427 8.18244 24.085 0.126297 4.57436 24.0604
0.131726 4.79249 20.1257 0.101582 3.86271 20.0483 0.104952 4.14974 19.7492 0.102852
4.23536 19.8369 0.0996059 3.9359 25.7436 -0.102013 13.3117 26.1218 -0.10008 13.4567
26.0295 -0.0866161 14.0655 25.5937 -0.0871017 13.853 20.8895 0.158107 9.1058 21.1752
0.161472 9.33605 20.9836 0.158215 9.94042 20.6118 0.155203 9.65826 24.1138 0.109921
4.03663 23.9913 0.120714 4.45016 24.0529 0.107662 3.97961 20.4064 0.102891 3.7773
20.338 0.106341 4.05049 23.3008 0.105503 3.89544 23.2977 0.105723 3.90368 23.2511
0.10378 3.81512 23.324 0.0989063 3.63228 23.3259 0.0989385 3.63402 21.3803 0.163472
8.8057 21.1419 0.159928 8.59336 23.3796 0.0998613 3.6838 26.6279 -0.155518 4.78365
26.7586 -0.153775 4.78744 26.6137 -0.161382 5.13853 25.1176 -0.166088 4.05575 25.0513
-0.176033 4.40308 24.9972 -0.175484 4.33125 25.0637 -0.165494 3.99008 26.5914 -0.16284
5.20896 26.4577 -0.164627 5.19474 26.4827 -0.15726 4.77045 24.5348 0.0113421 0.56327
24.4625 0.0136799 0.645626 24.4703 0.0123567 0.567466 24.5309 0.0106074 0.509428 24.6322
0.00571518 0.220062 24.6297 0.00578477 0.22404 24.5268 0.00780965 0.257739 24.5394 0.00743381
0.234541 24.5236 0.0127306 0.641339 24.4614 0.015008 0.724348 24.6435 0.0188069 1.01272
24.5998 0.023211 1.18495 24.5721 0.0222399 1.13633 24.6141 0.0185949 0.994062 24.3058
0.0116347 0.109457 24.1954 0.0144649 0.195476 24.6799 0.00441397 0.146226 24.5572 0.00689509
0.201683 24.6036 0.00579325 0.152619 29.5724 -0.107237 3.58706 29.3303 -0.103702 3.25308
29.4608 -0.099298 3.01917 29.7239 -0.102625 3.33012 19.1337 0.00939182 -5.22625 19.2047
0.0117101 -4.49662 18.5199 0.0123303 -4.34722 18.266 0.0100498 -5.12774 28.4424 -0.0318926
-0.995136 28.7317 -0.031745 -1.4105 29.3575 -0.0397886 -1.01027 28.9137 -0.0392345 -0.66211
25.9444 -0.00299056 -1.42677 25.9838 -0.00339368 -1.4523 26.0229 -0.00378865 -1.42308 19.8434
0.0112509 -4.50564 19.9013 0.00886142 -5.17059 27.9619 -0.0254855 -1.19883 28.1072 -0.02483
-1.62644 20.2048 0.0981871 3.59074 19.9265 0.0963698 3.65158 19.3044 0.0138451 -3.9081
18.736 0.0144681 -3.7247 19.8413 0.0133561 -3.98315 29.1836 -0.108004 3.46936 29.405
-0.111722 3.82252 25.9067 -0.117715 12.7734 26.2552 -0.114936 12.8797 26.6108 -0.16258
5.21103 26.7791 -0.153503 4.78803 26.7709 -0.160296 5.21794 25.4135 -0.104531 13.1501
25.5894 -0.121139 12.6431 17.1228 0.0690997 3.95088 17.4991 0.0729361 3.9698 17.3588
0.0761374 4.3167 17.0195 0.0726207 4.28743 17.0495 0.0705244 4.12748 28.94 -0.101976
13.3727 28.8758 -0.102238 13.2621 28.0135 -0.10098 13.1429 28.4174 -0.0997203 13.4108
15.8564 0.103227 6.88851 15.6191 0.102137 6.76825 15.8243 0.0999226 6.58884 16.0353
0.101117 6.68421 25.2241 -0.0882555 13.635 19.6961 0.194407 8.72913 19.7199 0.191881
8.77374 19.866 0.175185 9.23612 19.6612 0.176393 9.11659 21.5026 0.164715 9.55878
21.2923 0.160773 10.1377 25.9297 -0.00317429 -0.890198 25.6819 -0.000491753 -1.14231 25.7791
-0.00130238 -1.31985 26.1875 -0.00545015 -1.30017 26.273 -0.00646571 -1.10042 22.1 0.0531113
0.555431 21.8179 0.059395 0.827705 21.5074 0.058115 0.717092 21.8388 0.0523 0.420925
23.5936 0.0249875 -0.271828 23.5186 0.0242829 -0.545285 23.9196 0.0184079 -0.532189 23.9326
0.0187841 -0.333582 22.1704 0.0467292 0.177147 22.3833 0.0472827 0.329289 19.3469 0.127864
6.73903 19.75 0.130563 6.51739 19.7917 0.134665 6.91185 19.371 0.131952 7.17258
17.7813 0.0874835 13.8808 18.4272 0.101639 15.0527 18.7406 0.122789 15.6656 18.1848
0.113191 14.4249 15.6506 0.105353 7.10686 16.0842 0.104558 6.98934 15.889 0.106607
7.22548 20.4765 0.0994491 3.5177 23.592 0.0324581 0.693885 23.51 0.0360686 0.82453
23.3621 0.0395577 0.862196 23.4576 0.0355674 0.716862 22.3501 0.0526393 0.649416 22.1082
0.0588317 0.901689 29.135 -0.104782 13.231 29.2227 -0.10545 13.1896 31.8107 -0.118259
6.83175 32.1995 -0.117164 7.48107 31.7384 -0.120852 7.84274 31.3992 -0.122297 7.19127
28.8268 -0.147087 9.19356 28.7386 -0.150983 8.58283 29.0827 -0.146716 8.47577 29.1945
-0.143015 9.09322 23.4109 0.102507 3.79409 23.4118 0.102582 3.79721 23.346 0.107602
3.98789 19.9192 0.2082 8.42963 20.0446 0.210826 8.44502 21.6294 0.166905 8.98619
28.9048 -0.101653 13.4666 28.5914 -0.0988738 13.5959 17.7014 0.0628188 13.5333 18.1419
0.0753029 14.3654 15.3833 0.104431 6.94625 19.2854 -0.127911 9.13441 19.2854 -0.127911
9.13442 22.6734 -0.127779 10.7461 24.4438 -0.120839 11.3568 23.7109 -0.125504 10.9395
31.1961 0.0647621 14.3641 30.7351 0.0674302 14.8775 29.8538 0.0629423 14.2803 30.7368
0.0630432 14.0696 17.4114 0.0757284 13.0714 17.6566 0.100198 13.3579 20.8368 0.195365
9.12062 20.0518 0.194958 9.27839 20.1759 0.191727 9.33917 21.1026 0.189672 9.24909
22.4516 0.0297587 12.8383 21.9499 0.02815 12.7856 20.4988 0.0531139 11.8882 21.3507
0.0496729 12.1811 19.2853 -0.127911 9.13441 17.9469 0.139738 10.4924 16.8371 0.14641
9.89054 15.2421 0.153246 9.65001 15.414 0.143791 9.58777 17.8922 0.132831 9.89354
18.0562 0.134432 10.3422 17.5709 0.132124 10.6208 17.4202 0.130645 10.0926 25
0 0 25 0 0 26.53 -0.0869574 0.228751 26.4442 -0.087844
0.228482 26.6379 -0.148344 4.37643 26.7673 -0.146727 4.37846 25.3737 -0.00439723 -0.00769469
25.9552 -0.0121157 -0.00630238 25 0 0 25 0 0 29.1187
-0.100052 2.94739 29.2314 -0.0958678 2.73483 28.2005 -0.0316472 -0.694586 28.5629 -0.0383066
-0.421103 28.9903 -0.104148 3.14529 26.7815 -0.14655 4.37868 27.4419 -0.0287369 -0.0502857
27.576 -0.0326735 -0.0169962 25.0485 -0.000529402 -0.00166398 25 0 0 26.4085
-0.00842528 -0.758123 26.4102 -0.00844993 -0.753812 26.0802 -0.00500888 -0.65031 26.0797 -0.00500322
-0.65105 27.8237 -0.0257657 -0.876918 17.658 0.0699823 3.59535 17.1445 0.0671691 3.74873
17.25 0.0659065 3.53237 16.8476 0.0316685 1.25189 16.8635 0.0308131 1.06408 17.0227
0.0314423 1.05125 17.0068 0.0323292 1.22408 18.8352 0.0514559 1.36599 19.1013 0.0553594
1.47107 18.9027 0.0570937 1.7254 18.6354 0.0530145 1.61551 19.0247 -0.129026 8.90377
23.2062 -0.129047 10.6292 27.2834 -0.0249129 -0.0782913 23.5569 0.0319515 0.586756 23.6765
0.02925 0.577004 23.9869 0.0181581 -0.177055 23.7116 0.0239302 -0.0888443 22.5917 0.0468844
0.434465 19.0247 -0.129026 8.90376 17.8704 0.0769838 4.00847 17.7217 0.0800344 4.35368
19.7428 0.126614 6.1389 19.3615 0.123992 6.32537 16.2473 0.102501 6.76905 20.1514
0.146794 8.12261 20.3617 0.150626 8.49277 19.9868 0.148023 8.97661 19.7418 0.14415
8.55066 18.8264 0.14317 10.5846 19.5454 0.141069 11.0847 18.2882 0.134948 9.68259
18.4474 0.136652 10.0549 20.1192 0.132376 6.2779 20.1699 0.136495 6.63835 22.4459
0.143562 5.74171 22.5433 0.146492 5.88068 22.4085 0.151712 6.2322 22.2997 0.148646
6.0841 21.7682 0.124983 4.76091 21.9691 0.121527 4.51907 22.009 0.124819 4.71168
21.8122 0.128566 4.97023 29.0004 -0.104047 13.2631 26.4241 -0.189013 8.78773 26.6683
-0.183948 8.82365 26.6354 -0.180237 9.4034 26.3775 -0.185655 9.36174 28.4048 -0.155333
8.67652 28.4724 -0.151292 9.28136 17.6022 0.0544298 13.0504 23.8992 -0.112721 12.385
24.0338 -0.137904 12.0423 24.1597 -0.131415 12.1751 24.0132 -0.107629 12.5216 22.9797
0.0147986 13.113 22.7786 0.0119613 13.2157 17.3811 0.112954 7.23307 17.912 0.116763
7.19687 17.8089 0.120747 7.75353 17.4895 0.119193 7.84769 17.1796 0.117228 7.80751
17.2305 0.114811 7.51226 17.7839 0.130956 9.45829 17.3394 0.128874 9.60398 25.7743
-0.116211 11.6766 26.5017 -0.110847 12.0814 29.029 -0.129603 11.1093 29.4363 -0.127273
11.0436 29.4468 -0.12004 11.6782 29.0306 -0.121818 11.7401 30.8655 -0.119986 10.7393
30.9445 -0.116642 11.1256 30.6552 -0.117943 11.1758 30.6118 -0.120952 10.8584 23.8628
-0.0453683 15.0012 23.6151 -0.0438174 15.0516 21.5033 -0.0186107 14.6231 22.0743 -0.024541
14.6537 22.5181 -0.0187201 14.0881 22.5933 0.0102426 14.6057 21.944 -0.00311984 14.3972
22.444 -0.0253625 14.2729 26.5777 -0.101855 12.5449 27.8018 -0.100725 12.9128 27.5113
-0.100893 12.9014 25.866 -0.104357 12.4124 31.416 0.0455219 9.61681 31.3593 0.0461693