# vtk DataFile Version 2.0
track0
ASCII
DATASET POLYDATA
POINTS 15205 float
-1.001 -0.05 0.0011
-1.00088 -0.05 0.0011
-1.00076 -0.05 0.00109999
-1.00064 -0.05 0.00109999
-1.00052 -0.05 0.00109999
-1.0004 -0.05 0.00109998
-0.975398 -0.05 0.00109925
-0.9504 -0.0499999 0.00109824
-0.925402 -0.0499999 0.00109723
-0.900404 -0.0499998 0.00109623
-0.875406 -0.0499998 0.00109522
-0.850407 -0.0499998 0.0010941
-0.825407 -0.0499996 0.00109262
-0.800408 -0.0499994 0.00109114
-0.775408 -0.0499993 0.00108966
-0.750409 -0.0499991 0.00108819
-0.737914 -0.049999 0.00108726
-0.72542 -0.0499988 0.00108573
-0.712925 -0.0499986 0.0010842
-0.700431 -0.0499985 0.00108268
-0.687936 -0.0499983 0.00108115
-0.675431 -0.0499983 0.00108008
-0.662926 -0.0499981 0.0010784
-0.65042 -0.0499978 0.00107671
-0.637915 -0.0499976 0.00107503
-0.62541 -0.0499974 0.00107335
-0.612898 -0.0499972 0.00107205
-0.600387 -0.0499969 0.00107012
-0.587876 -0.0499966 0.0010682
-0.575365 -0.0499963 0.00106629
-0.562854 -0.0499961 0.00106437
-0.550338 -0.0499961 0.00106281
-0.537822 -0.0499957 0.00106065
-0.525307 -0.0499953 0.0010585
-0.512791 -0.049995 0.00105635
-0.500275 -0.0499946 0.0010542
-0.487751 -0.0499942 0.00105242
-0.475226 -0.0499937 0.00105011
-0.462701 -0.0499932 0.00104781
-0.450177 -0.0499927 0.00104551
-0.437652 -0.0499922 0.00104321
-0.42513 -0.0499923 0.00104128
-0.412607 -0.0499916 0.00103884
-0.400084 -0.049991 0.00103641
-0.387562 -0.0499903 0.00103398
-0.375039 -0.0499896 0.00103156
-0.362534 -0.0499888 0.00102976
-0.350028 -0.049988 0.00102813
-0.337522 -0.0499872 0.00102649
-0.325017 -0.0499864 0.00102486
-0.312511 -0.0499855 0.00102324
-0.306259 -0.049985 0.00102248
-0.300007 -0.0499841 0.00102118
-0.293755 -0.0499831 0.00101988
-0.287503 -0.0499822 0.00101857
-0.281251 -0.0499812 0.00101727
-0.275 -0.04998 0.00101663
-0.26875 -0.0499789 0.00101564
-0.2625 -0.0499777 0.00101465
-0.25625 -0.0499766 0.00101367
-0.25 -0.0499755 0.00101268
-0.24375 -0.0499749 0.00101227
-0.2375 -0.0499735 0.00101156
-0.23125 -0.0499721 0.00101084
-0.225 -0.0499707 0.00101012
-0.21875 -0.0499693 0.00100941
-0.2125 -0.0499677 0.00100926
-0.20625 -0.049966 0.00100889
-0.2 -0.0499644 0.00100851
-0.19375 -0.0499627 0.00100814
-0.1875 -0.049961 0.00100777
-0.18125 -0.0499603 0.00100799
-0.175 -0.0499583 0.00100808
-0.16875 -0.0499563 0.00100816
-0.1625 -0.0499543 0.00100824
-0.15625 -0.0499523 0.00100833
-0.153125 -0.0499512 0.0010085
-0.15 -0.0499489 0.00100877
-0.146875 -0.0499467 0.00100905
-0.14375 -0.0499444 0.00100932
-0.140625 -0.0499422 0.00100959
-0.1375 -0.0499402 0.00100987
-0.134374 -0.0499376 0.00101035
-0.131249 -0.0499351 0.00101082
-0.128124 -0.0499325 0.0010113
-0.124999 -0.0499299 0.00101178
-0.121874 -0.0499285 0.00101218
-0.118749 -0.0499256 0.00101282
-0.115624 -0.0499228 0.00101347
-0.112499 -0.0499199 0.00101412
-0.109374 -0.049917 0.00101477
-0.106249 -0.0499148 0.00101531
-0.103124 -0.0499117 0.00101608
-0.0999989 -0.0499086 0.00101685
-0.0968739 -0.0499055 0.00101763
-0.0937488 -0.0499024 0.00101841
-0.0906239 -0.0499008 0.00101904
-0.0874989 -0.0498975 0.00101993
-0.0843739 -0.0498941 0.00102082
-0.0812489 -0.0498908 0.00102171
-0.0781239 -0.0498875 0.00102261
-0.0749989 -0.049885 0.00102336
-0.0718739 -0.0498815 0.00102437
-0.0687489 -0.0498779 0.00102537
-0.0656238 -0.0498744 0.00102637
-0.0624988 -0.0498708 0.00102737
-0.0593738 -0.049869 0.00102821
-0.0562488 -0.0498652 0.00102932
-0.0531238 -0.0498615 0.00103043
-0.0499988 -0.0498577 0.00103155
-0.0468738 -0.0498539 0.00103266
-0.0437488 -0.0498512 0.00103362
-0.0406238 -0.0498472 0.00103484
-0.0374988 -0.0498432 0.00103605
-0.0343738 -0.0498392 0.00103727
-0.0312488 -0.0498351 0.00103849
-0.0281239 -0.0498332 0.00103953
-0.0249989 -0.0498289 0.00104085
-0.0218739 -0.0498247 0.00104217
-0.018749 -0.0498205 0.00104349
-0.015624 -0.0498162 0.00104481
-0.012499 -0.0498133 0.00104597
-0.00937393 -0.0498088 0.00104738
-0.00624889 -0.0498043 0.0010488
-0.00312386 -0.0497999 0.00105021
1.18311e-06 -0.0497954 0.00105163
0.00312621 -0.0497932 0.00105287
0.00625124 -0.0497886 0.00105438
0.00937627 -0.0497839 0.00105589
0.0125013 -0.0497792 0.00105741
0.0156263 -0.0497745 0.00105892
0.0187516 -0.0497713 0.00106026
0.0218768 -0.0497664 0.00106187
0.025002 -0.0497615 0.00106347
0.0281273 -0.0497565 0.00106507
0.0312525 -0.0497516 0.00106668
0.0343793 -0.0497493 0.0010681
0.037506 -0.0497441 0.00106979
0.0406327 -0.049739 0.00107149
0.0437595 -0.0497338 0.00107318
0.0468862 -0.0497287 0.00107488
0.050011 -0.0497252 0.0010764
0.0531358 -0.0497199 0.00107817
0.0562606 -0.0497145 0.00107995
0.0593853 -0.0497091 0.00108173
0.0625101 -0.0497038 0.00108351
0.065635 -0.0497012 0.0010851
0.0687598 -0.0496957 0.00108695
0.0718846 -0.0496901 0.00108881
0.0750094 -0.0496845 0.00109067
0.0781342 -0.0496789 0.00109254
0.0812601 -0.0496752 0.00109421
0.084386 -0.0496694 0.00109614
0.0875119 -0.0496636 0.00109808
0.0906377 -0.0496578 0.00110002
0.0937636 -0.0496519 0.00110197
0.0968915 -0.0496492 0.00110371
0.100019 -0.0496432 0.00110572
0.103147 -0.0496372 0.00110773
0.106275 -0.0496312 0.00110975
0.109403 -0.0496251 0.00111177
0.112529 -0.0496212 0.00111358
0.115655 -0.0496149 0.00111566
0.118781 -0.0496087 0.00111774
0.121907 -0.0496025 0.00111983
0.125032 -0.0495962 0.00112192
0.128157 -0.0495933 0.00112379
0.131283 -0.0495869 0.00112593
0.134408 -0.0495805 0.00112808
0.137533 -0.049574 0.00113023
0.140658 -0.0495675 0.00113238
0.143784 -0.0495634 0.00113432
0.146909 -0.0495567 0.00113652
0.150035 -0.0495501 0.00113873
0.153161 -0.0495434 0.00114094
0.156287 -0.0495368 0.00114316
0.159413 -0.0495337 0.00114515
0.16254 -0.0495269 0.00114741
0.165667 -0.04952 0.00114968
0.168794 -0.0495131 0.00115194
0.171921 -0.0495063 0.00115422
0.175047 -0.0495019 0.00115626
0.178172 -0.0494948 0.00115857
0.181298 -0.0494878 0.00116089
0.184424 -0.0494807 0.00116321
0.18755 -0.0494736 0.00116553
0.190674 -0.0494704 0.00116762
0.193799 -0.0494632 0.00116998
0.196923 -0.0494559 0.00117234
0.200048 -0.0494487 0.00117471
0.203172 -0.0494414 0.00117708
0.206296 -0.0494368 0.0011792
0.209421 -0.0494294 0.0011816
0.212545 -0.049422 0.001184
0.215669 -0.0494145 0.00118641
0.218794 -0.0494071 0.00118882
0.221919 -0.0494037 0.00119099
0.225045 -0.0493962 0.00119343
0.22817 -0.0493886 0.00119587
0.231296 -0.0493809 0.00119832
0.234421 -0.0493733 0.00120077
0.237548 -0.0493685 0.00120296
0.240674 -0.0493607 0.00120543
0.2438 -0.0493529 0.00120791
0.246927 -0.0493452 0.00121039
0.250053 -0.0493373 0.00121287
0.25318 -0.0493339 0.0012151
0.256307 -0.0493259 0.00121761
0.259434 -0.049318 0.00122011
0.262561 -0.04931 0.00122263
0.265688 -0.0493021 0.00122514
0.268813 -0.049297 0.00122739
0.271938 -0.049289 0.00122991
0.275062 -0.0492809 0.00123244
0.278187 -0.0492728 0.00123498
0.281312 -0.0492646 0.00123752
0.284435 -0.049261 0.00123979
0.287558 -0.0492528 0.00124234
0.290681 -0.0492446 0.00124489
0.293804 -0.0492363 0.00124744
0.296927 -0.0492281 0.00125
0.30005 -0.0492229 0.00125227
0.303174 -0.0492146 0.00125483
0.306297 -0.0492062 0.0012574
0.309421 -0.0491978 0.00125996
0.312544 -0.0491894 0.00126254
0.315668 -0.0491857 0.00126484
0.318793 -0.0491772 0.00126741
0.321917 -0.0491687 0.00126998
0.325041 -0.0491602 0.00127256
0.328166 -0.0491517 0.00127515
0.331291 -0.0491464 0.00127744
0.334416 -0.0491378 0.00128002
0.337541 -0.0491292 0.0012826
0.340666 -0.0491206 0.00128519
0.343791 -0.0491119 0.00128779
0.346916 -0.0491081 0.0012901
0.350042 -0.0490994 0.00129269
0.353168 -0.0490907 0.00129528
0.356294 -0.0490819 0.00129787
0.35942 -0.0490731 0.00130047
0.362549 -0.0490677 0.00130278
0.365679 -0.0490588 0.00130537
0.368808 -0.04905 0.00130796
0.371938 -0.0490411 0.00131056
0.375068 -0.0490323 0.00131317
0.378205 -0.0490283 0.0013155
0.381343 -0.0490194 0.00131809
0.384481 -0.0490104 0.0013207
0.387619 -0.0490015 0.0013233
0.390756 -0.0489925 0.00132592
0.393889 -0.0489869 0.00132821
0.397022 -0.0489779 0.0013308
0.400155 -0.0489689 0.0013334
0.403288 -0.0489598 0.001336
0.406421 -0.0489508 0.0013386
0.409551 -0.0489468 0.00134091
0.412682 -0.0489377 0.00134349
0.415813 -0.0489286 0.00134608
0.418943 -0.0489195 0.00134867
0.422074 -0.0489103 0.00135126
0.425204 -0.0489047 0.00135355
0.428334 -0.0488955 0.00135612
0.431464 -0.0488863 0.0013587
0.434594 -0.0488771 0.00136128
0.437724 -0.0488679 0.00136387
0.440854 -0.0488639 0.00136616
0.443984 -0.0488546 0.00136873
0.447114 -0.0488454 0.0013713
0.450244 -0.0488361 0.00137387
0.453374 -0.0488268 0.00137645
0.456504 -0.0488211 0.00137871
0.459634 -0.0488118 0.00138126
0.462763 -0.0488025 0.00138382
0.465893 -0.0487931 0.00138638
0.469023 -0.0487838 0.00138895
0.472152 -0.0487797 0.00139121
0.475282 -0.0487703 0.00139375
0.478411 -0.048761 0.00139629
0.481541 -0.0487516 0.00139884
0.48467 -0.0487422 0.00140139
0.4878 -0.0487364 0.00140362
0.490929 -0.048727 0.00140615
0.494058 -0.0487175 0.00140867
0.497187 -0.0487081 0.0014112
0.500317 -0.0486987 0.00141374
0.503446 -0.0486945 0.00141597
0.506575 -0.0486851 0.00141848
0.509704 -0.0486756 0.00142099
0.512833 -0.0486661 0.0014235
0.515962 -0.0486567 0.00142602
0.519091 -0.0486508 0.00142821
0.52222 -0.0486413 0.0014307
0.525348 -0.0486318 0.00143319
0.528477 -0.0486223 0.00143568
0.531606 -0.0486128 0.00143818
0.534734 -0.0486086 0.00144037
0.537863 -0.0485991 0.00144284
0.540992 -0.0485896 0.0014453
0.54412 -0.04858 0.00144778
0.547249 -0.0485705 0.00145025
0.550377 -0.0485645 0.00145241
0.553506 -0.048555 0.00145485
0.556634 -0.0485455 0.00145729
0.559762 -0.0485359 0.00145974
0.562891 -0.0485263 0.0014622
0.566019 -0.0485221 0.00146435
0.569147 -0.0485126 0.00146676
0.572275 -0.048503 0.00146919
0.575403 -0.0484935 0.00147161
0.578532 -0.0484839 0.00147404
0.58166 -0.0484779 0.00147615
0.584788 -0.0484684 0.00147854
0.587915 -0.0484588 0.00148094
0.591043 -0.0484492 0.00148334
0.594171 -0.0484397 0.00148574
0.597299 -0.0484354 0.00148785
0.600427 -0.0484259 0.00149023
0.603555 -0.0484163 0.00149261
0.606683 -0.0484068 0.00149499
[...]
POINT_DATA 15205
 FIELD attributes 1
U 3 15205 float
25.0026 	2.06554e-05 	-0.000700234 25.0025 	2.01036e-05 	-0.000707161 25.0023 	1.95518e-05 	-0.000714088 25.0022 	1.9e-05 	-0.000721014 25.002 	1.84482e-05 	-0.000727941 25.0018 	1.78964e-05 	-0.000734868 25.0046 	5.39361e-05 	-0.00100831 25.0046 	5.38866e-05 	-0.00100738 25.0046 	5.38372e-05 	-0.00100646 25.0045 	5.37878e-05 	-0.00100554 25.0028 	-2.44092e-06 	-0.00112133 25.0074 	0.00015964 	-0.00148149 25.0074 	0.000159424 	-0.00147948 25.0074 	0.000159208 	-0.00147748 25.0074 	0.000158992 	-0.00147548 25.0093 	0.000219539 	-0.00185964 25.0184 	0.000373595 	-0.00306208 25.0183 	0.00037307 	-0.00305778 25.0183 	0.000372545 	-0.00305348 25.0183 	0.000372021 	-0.00304918 25.0109 	-3.41064e-05 	-0.00214674 25.0234 	0.000449249 	-0.00337457 25.0234 	0.000448548 	-0.0033693 25.0234 	0.000447847 	-0.00336404 25.0233 	0.000447148 	-0.00335879 25.0135 	0.000403817 	-0.00260841 25.0294 	0.000571793 	-0.00384828 25.0294 	0.000570767 	-0.00384138 25.0293 	0.000569743 	-0.00383449 25.0293 	0.000568721 	-0.00382761 25.0167 	-8.06526e-05 	-0.00312022 25.0366 	0.000753561 	-0.00431853 25.0365 	0.00075203 	-0.00430976 25.0365 	0.000750502 	-0.004301 25.0364 	0.000748978 	-0.00429227 25.0204 	0.000827872 	-0.00356176 25.0449 	0.00099658 	-0.00461789 25.0448 	0.000994393 	-0.00460776 25.0447 	0.000992211 	-0.00459764 25.0446 	0.000990034 	-0.00458756 25.025 	-0.000175239 	-0.0038588 25.0551 	0.00132932 	-0.00488051 25.055 	0.00132621 	-0.00486907 25.0549 	0.0013231 	-0.00485767 25.0547 	0.00132 	-0.00484629 25.0301 	0.00158143 	-0.0035958 25.0651 	0.00166009 	-0.00327798 25.065 	0.00165746 	-0.00327277 25.0649 	0.00165483 	-0.00326758 25.0648 	0.0016522 	-0.00326239 25.0709 	0.00196262 	-0.00301421 25.1402 	0.00383426 	-0.00524824 25.14 	0.00382937 	-0.00524154 25.1398 	0.00382448 	-0.00523485 25.1396 	0.0038196 	-0.00522817 25.0741 	0.00489219 	-0.00257548 25.1502 	0.00459704 	-0.00398042 25.1501 	0.00459256 	-0.00397655 25.15 	0.0045881 	-0.00397268 25.1498 	0.00458363 	-0.00396881 25.0794 	0.00239491 	-0.00163655 25.1585 	0.00560089 	-0.00288645 25.1584 	0.00559692 	-0.0028844 25.1583 	0.00559295 	-0.00288236 25.1582 	0.00558899 	-0.00288032 25.0829 	0.00635294 	-0.000592211 25.1657 	0.00675646 	-0.0015042 25.1656 	0.00675396 	-0.00150364 25.1656 	0.00675146 	-0.00150308 25.1655 	0.00674896 	-0.00150253 25.087 	0.00303788 	0.000905443 25.1705 	0.00798219 	0.000336774 25.1705 	0.00798285 	0.000336802 25.1705 	0.00798351 	0.00033683 25.1706 	0.00798417 	0.000336858 25.1733 	0.00929469 	0.00140875 25.3454 	0.0182661 	0.00220517 25.3455 	0.018271 	0.00220576 25.3456 	0.0182759 	0.00220636 25.3457 	0.0182809 	0.00220695 25.1746 	0.0157632 	0.00224481 25.3508 	0.0208711 	0.00386859 25.3509 	0.020881 	0.00387042 25.3511 	0.0208908 	0.00387224 25.3513 	0.0209007 	0.00387407 25.1777 	0.0112875 	0.00322471 25.3544 	0.0232318 	0.00524797 25.3546 	0.0232466 	0.00525132 25.3548 	0.0232615 	0.00525468 25.3551 	0.0232764 	0.00525804 25.1783 	0.0176948 	0.00433268 25.3569 	0.025173 	0.00628445 25.3572 	0.0251922 	0.00628924 25.3575 	0.0252115 	0.00629404 25.3577 	0.0252307 	0.00629884 25.1803 	0.0129433 	0.00507514 25.358 	0.0270328 	0.00723643 25.3583 	0.0270565 	0.00724276 25.3586 	0.0270802 	0.0072491 25.3589 	0.0271039 	0.00725544 25.1797 	0.0195758 	0.00608945 25.3581 	0.0288306 	0.00812252 25.3585 	0.0288588 	0.00813047 25.3588 	0.028887 	0.00813842 25.3592 	0.0289153 	0.00814638 25.1807 	0.014404 	0.0067698 25.3578 	0.0306699 	0.00900506 25.3582 	0.030703 	0.00901478 25.3586 	0.0307361 	0.00902451 25.359 	0.0307693 	0.00903425 25.1798 	0.021563 	0.00774363 25.3567 	0.0325101 	0.00985835 25.3571 	0.0325483 	0.00986994 25.3575 	0.0325865 	0.00988154 25.3579 	0.0326249 	0.00989315 25.1799 	0.0158842 	0.00840919 25.3547 	0.0343511 	0.0106789 25.3551 	0.0343946 	0.0106924 25.3556 	0.0344381 	0.010706 25.356 	0.0344817 	0.0107195 25.1781 	0.0235975 	0.00932573 25.3518 	0.0362011 	0.0114741 25.3523 	0.03625 	0.0114897 25.3528 	0.036299 	0.0115052 25.3533 	0.0363481 	0.0115208 25.1774 	0.0173645 	0.00997491 25.3481 	0.0380028 	0.0122418 25.3486 	0.0380573 	0.0122593 25.3491 	0.0381118 	0.0122769 25.3496 	0.0381665 	0.0122945 25.1747 	0.025624 	0.0108191 25.3436 	0.0398141 	0.0129796 25.3441 	0.0398742 	0.0129992 25.3446 	0.0399344 	0.0130188 25.3451 	0.0399946 	0.0130384 25.1733 	0.0188333 	0.0114486 25.3384 	0.0416268 	0.0136946 25.339 	0.0416927 	0.0137163 25.3395 	0.0417586 	0.013738 25.3401 	0.0418247 	0.0137597 25.1699 	0.0276696 	0.0122126 25.3327 	0.0434118 	0.0143808 25.3332 	0.0434834 	0.0144045 25.3338 	0.043555 	0.0144283 25.3343 	0.0436268 	0.014452 25.1675 	0.0202635 	0.0127945 25.3262 	0.0451936 	0.0150363 25.3267 	0.0452708 	0.015062 25.3273 	0.0453482 	0.0150878 25.3278 	0.0454258 	0.0151136 25.1638 	0.0297052 	0.0134831 25.3191 	0.0469652 	0.0156622 25.3196 	0.0470482 	0.0156899 25.3202 	0.0471313 	0.0157176 25.3208 	0.0472146 	0.0157454 25.1606 	0.0216919 	0.0140156 25.3116 	0.0486888 	0.01626 25.3121 	0.0487774 	0.0162896 25.3127 	0.0488662 	0.0163193 25.3133 	0.0489552 	0.016349 25.1565 	0.0316899 	0.014617 25.3034 	0.0503771 	0.016818 25.3039 	0.0504711 	0.0168494 25.3045 	0.0505653 	0.0168808 25.3051 	0.0506596 	0.0169123 25.1525 	0.0230659 	0.0150962 25.2946 	0.0520364 	0.0173338 25.2951 	0.0521356 	0.0173668 25.2957 	0.0522349 	0.0173999 25.2963 	0.0523345 	0.0174331 25.1479 	0.0335911 	0.0155938 25.2855 	0.0536764 	0.0178178 25.2861 	0.0537806 	0.0178524 25.2866 	0.053885 	0.017887 25.2872 	0.0539896 	0.0179218 25.1435 	0.0244089 	0.0160266 25.2762 	0.0553208 	0.0182702 25.2767 	0.05543 	0.0183062 25.2773 	0.0555394 	0.0183423 25.2778 	0.055649 	0.0183785 25.1387 	0.0354871 	0.0164271 25.2665 	0.0569094 	0.0186837 25.267 	0.0570232 	0.0187211 25.2675 	0.0571372 	0.0187585 25.2681 	0.0572514 	0.018796 25.1338 	0.025716 	0.0168082 25.2563 	0.0584093 	0.0190516 25.2568 	0.0585272 	0.01909 25.2573 	0.0586454 	0.0191286 25.2578 	0.0587637 	0.0191672 25.1286 	0.0372212 	0.0171003 25.2457 	0.0598428 	0.019375 25.2462 	0.0599644 	0.0194144 25.2467 	0.0600864 	0.0194539 25.2472 	0.0602085 	0.0194934 25.1233 	0.0268882 	0.0174239 25.2351 	0.0612366 	0.0196697 25.2356 	0.0613619 	0.01971 25.2361 	0.0614874 	0.0197503 25.2366 	0.0616132 	0.0197907 25.1179 	0.0388319 	0.0176254 25.2245 	0.0625917 	0.019936 25.2249 	0.0627202 	0.019977 25.2254 	0.062849 	0.020018 25.2259 	0.0629781 	0.0200591 25.1126 	0.0280172 	0.0179065 25.2138 	0.0639029 	0.0201754 25.2143 	0.0640345 	0.0202169 25.2147 	0.0641663 	0.0202586 25.2152 	0.0642984 	0.0203003 25.1073 	0.0403787 	0.0180291 25.203 	0.0651222 	0.0203724 25.2034 	0.0652562 	0.0204144 25.2038 	0.0653905 	0.0204564 25.2042 	0.0655251 	0.0204985 25.1017 	0.0290489 	0.018269 25.1917 	0.0662271 	0.0205156 25.1921 	0.066363 	0.0205577 25.1925 	0.0664991 	0.0205999 25.1929 	0.0666355 	0.0206421 25.096 	0.0416655 	0.0182823 25.1805 	0.0672547 	0.0206216 25.1808 	0.0673921 	0.0206638 25.1812 	0.0675298 	0.020706 25.1816 	0.0676677 	0.0207483 25.0903 	0.0298873 	0.0184672 25.1694 	0.0682367 	0.0207015 25.1697 	0.0683754 	0.0207436 25.1701 	0.0685143 	0.0207857 25.1704 	0.0686535 	0.0208279 25.0849 	0.0428111 	0.0184133 25.1585 	0.0691774 	0.0207605 25.1588 	0.069317 	0.0208024 25.1591 	0.069457 	0.0208444 25.1594 	0.0695972 	0.0208865 25.0793 	0.0306768 	0.0185682 25.1478 	0.0700687 	0.0207986 25.1481 	0.0702091 	0.0208402 25.1483 	0.0703498 	0.020882 25.1486 	0.0704908 	0.0209238 25.0741 	0.0438635 	0.0184492 25.1372 	0.0708944 	0.0208131 25.1375 	0.0710354 	0.0208545 25.1378 	0.0711767 	0.020896 25.138 	0.0713182 	0.0209375 25.0687 	0.0313861 	0.0185809 25.1267 	0.0715783 	0.0207978 25.127 	0.0717196 	0.0208389 25.1272 	0.0718612 	0.02088 25.1275 	0.0720031 	0.0209213 25.0635 	0.044681 	0.0183902 25.1164 	0.0722105 	0.0207517 25.1166 	0.0723513 	0.0207921 25.1169 	0.0724923 	0.0208326 25.1171 	0.0726335 	0.0208732 25.0583 	0.0319235 	0.0184855 25.1065 	0.0728465 	0.0207017 25.1067 	0.0729867 	0.0207415 25.1069 	0.0731272 	0.0207815 25.1071 	0.073268 	0.0208215 25.0535 	0.0454503 	0.0182629 25.0968 	0.0734432 	0.0206383 25.097 	0.0735828 	0.0206775 25.0972 	0.0737228 	0.0207168 25.0974 	0.073863 	0.0207562 25.0485 	0.032441 	0.0183382 25.0874 	0.0739836 	0.0205562 25.0876 	0.0741225 	0.0205948 25.0877 	0.0742617 	0.0206335 25.0879 	0.0744011 	0.0206722 25.044 	0.0461275 	0.0180778 25.0783 	0.0744641 	0.0204539 25.0784 	0.074602 	0.0204918 25.0786 	0.0747401 	0.0205297 25.0787 	0.0748785 	0.0205677 25.0392 	0.0328618 	0.0181252 25.0694 	0.0748883 	0.0203352 25.0695 	0.075025 	0.0203723 25.0696 	0.0751618 	0.0204095 25.0698 	0.075299 	0.0204467 25.035 	0.0466723 	0.0178334 25.0608 	0.0752612 	0.0202005 25.0609 	0.0753964 	0.0202368 25.061 	0.0755319 	0.0202731 25.0611 	0.0756677 	0.0203096 25.0304 	0.0331893 	0.017858 25.0525 	0.0755794 	0.0200536 25.0526 	0.0757131 	0.020089 25.0527 	0.075847 	0.0201246 25.0528 	0.0759812 	0.0201602 25.0266 	0.0470949 	0.0175443 25.0445 	0.0758425 	0.0198923 25.0446 	0.0759745 	0.0199269 25.0447 	0.0761067 	0.0199615 25.0448 	0.0762391 	0.0199963 25.0223 	0.0334278 	0.0175475 25.0368 	0.0760552 	0.0197186 25.0369 	0.0761853 	0.0197523 25.037 	0.0763156 	0.0197861 25.037 	0.0764462 	0.0198199 25.0188 	0.0473895 	0.0172171 25.0295 	0.0762147 	0.0195316 25.0296 	0.0763428 	0.0195645 25.0296 	0.0764711 	0.0195973 25.0297 	0.0765996 	0.0196303 25.0147 	0.0335792 	0.0172027 25.0225 	0.0763229 	0.0193359 25.0225 	0.0764489 	0.0193678 25.0226 	0.0765751 	0.0193997 25.0226 	0.0767015 	0.0194318 25.0116 	0.0475634 	0.0168659 25.0158 	0.0763566 	0.0191314 25.0159 	0.0764803 	0.0191625 25.0159 	0.0766043 	0.0191935 25.0159 	0.0767284 	0.0192246 25.0079 	0.0336304 	0.0168725 25.0098 	0.0763569 	0.01899 25.0098 	0.0764788 	0.0190203 25.0098 	0.0766009 	0.0190507 25.0099 	0.0767232 	0.0190811 25.005 	0.0476267 	0.0165787 25.0033 	0.0763384 	0.0188828 25.0033 	0.0764587 	0.0189126 25.0033 	0.0765791 	0.0189424 25.0033 	0.0766998 	0.0189722 25.0015 	0.0336439 	0.0166189 24.9974 	0.076332 	0.0187864 24.9974 	0.0764507 	0.0188157 24.9974 	0.0765696 	0.0188449 24.9974 	0.0766888 	0.0188742 24.9989 	0.0476223 	0.016328 24.9914 	0.076243 	0.0186405 24.9913 	0.0763599 	0.0186691 24.9913 	0.0764768 	0.0186977 24.9913 	0.076594 	0.0187263 24.9956 	0.0336086 	0.0163454 24.9861 	0.0761538 	0.0185418 24.9861 	0.076269 	0.0185698 24.9861 	0.0763844 	0.0185979 24.9861 	0.0765 	0.018626 24.9933 	0.0475538 	0.0160766 24.9802 	0.0760601 	0.0184724 24.9802 	0.076174 	0.0185 24.9801 	0.0762879 	0.0185277 24.9801 	0.0764021 	0.0185554 24.9902 	0.0335423 	0.016083 24.975 	0.0759601 	0.0183182 24.9749 	0.076072 	0.0183452 24.9749 	0.0761841 	0.0183722 24.9749 	0.0762964 	0.0183993 24.9882 	0.0474537 	0.0157691 24.9702 	0.0758097 	0.0180908 24.9701 	0.0759193 	0.018117 24.9701 	0.076029 	0.0181432 24.97 	0.0761388 	0.0181694 24.9854 	0.0334325 	0.0156943 24.9656 	0.0756173 	0.0178551 24.9656 	0.0757244 	0.0178804 24.9655 	0.0758316 	0.0179058 24.9655 	0.075885 	0.0179284 24.9837 	0.0471636 	0.01538 24.9616 	0.0748926 	0.0176022 24.9617 	0.0747305 	0.0176115 24.9617 	0.0745689 	0.0176208 24.9618 	0.0744078 	0.0176302 24.9811 	0.0332697 	0.0153123 24.9583 	0.0734851 	0.017338 24.9584 	0.0733285 	0.0173488 24.9585 	0.0731725 	0.0173595 24.9586 	0.0730169 	0.0173703 24.9797 	0.0461441 	0.0150344 24.9553 	0.0720335 	0.0170601 24.9554 	0.0718788 	0.0170688 24.9555 	0.0717247 	0.0170776 24.9555 	0.071571 	0.0170864 24.9774 	0.0330778 	0.0149672 24.9528 	0.0706904 	0.0168342 24.9529 	0.0705412 	0.0168443 24.953 	0.0703926 	0.0168543 24.9531 	0.0702444 	0.0168644 24.9761 	0.0451349 	0.014719 24.9503 	0.0692732 	0.0165659 24.9504 	0.0691261 	0.0165742 24.9505 	0.0689794 	0.0165825 24.9505 	0.0688332 	0.0165908 24.9741 	0.0328629 	0.0146483 24.9484 	0.0679971 	0.0163711 24.9485 	0.0678554 	0.0163805 24.9486 	0.0677141 	0.01639 24.9487 	0.0675733 	0.0163995 24.973 	0.0441449 	0.0144293 24.9463 	0.0666018 	0.016108 24.9464 	0.0664621 	0.0161159 24.9465 	0.0663228 	0.0161237 24.9466 	0.0661839 	0.0161317 24.9712 	0.0326245 	0.0143507 24.945 	0.0653453 	0.0159329 24.9451 	0.0651684 	0.0159398 24.9452 	0.0649921 	0.0159467 24.9454 	0.0648163 	0.0159536 24.9703 	0.0430848 	0.0141529 24.9435 	0.0638046 	0.0156628 24.9437 	0.0636316 	0.0156681 24.9438 	0.0634591 	0.0156735 24.9439 	0.0632872 	0.0156789 24.9687 	0.0323698 	0.0140676 24.9427 	0.0624818 	0.0155047 24.9429 	0.0623163 	0.0155114 24.943 	0.0621512 	0.0155181 24.9431 	0.0619867 	0.0155248 24.968 	0.0420067 	0.0138932 24.9416 	0.0610112 	0.0152389 24.9418 	0.0608493 	0.0152442 24.9419 	0.0606878 	0.0152495 24.942 	0.0605269 	0.0152548 24.9666 	0.0321109 	0.0137986 24.9412 	0.0597831 	0.0151043 24.9413 	0.059625 	0.0151106 24.9414 	0.0594674 	0.0151169 24.9416 	0.0593102 	0.0151233 24.966 	0.0409805 	0.0136435 24.9404 	0.0583644 	0.0148344 24.9406 	0.0582129 	0.0148396 24.9407 	0.0580618 	0.0148448 24.9408 	0.0579112 	0.01485 24.9648 	0.0318517 	0.0135359 24.9403 	0.0572012 	0.01473 24.9404 	0.057047 	0.0147357 24.9406 	0.0568934 	0.0147415 24.9407 	0.0567401 	0.0147474 24.9643 	0.0400149 	0.0133884 24.94 	0.0557977 	0.0143905 24.9402 	0.055591 	0.0143927 24.9404 	0.0553848 	0.014395 24.9406 	0.0551792 	0.0143973 24.9633 	0.0316279 	0.0132745 24.9405 	0.0542857 	0.0145454 24.9407 	0.054023 	0.0145429 24.941 	0.0537609 	0.0145405 24.9413 	0.0534996 	0.014538 24.9629 	0.0388622 	0.0131106 24.941 	0.0527669 	0.0130399 24.9414 	0.052284 	0.01305 24.9419 	0.0518024 	0.01306 24.9424 	0.0513221 	0.01307 24.9622 	0.0314854 	0.0129995 24.9618 	0.0310888 	0.0127301 24.9618 	0.0311453 	0.0127532 24.9617 	0.0312019 	0.0127764 24.9616 	0.0312586 	0.0127996 24.9839 	0.023962 	0.0133489 24.961 	0.0310323 	0.0122996 24.9609 	0.0310862 	0.012321 24.9609 	0.0311401 	0.0123424 24.9608 	0.0311942 	0.0123638 24.983 	0.0098992 	0.012954 24.9604 	0.0304421 	0.0125029 24.9604 	0.0304953 	0.0125248 24.9603 	0.0305487 	0.0125467 24.9602 	0.0306022 	0.0125687 24.9831 	0.0237608 	0.0128118 24.9595 	0.0320477 	0.0097709 24.9594 	0.0320912 	0.00978416 24.9594 	0.0321348 	0.00979744 24.9593 	0.0321784 	0.00981073 24.9824 	0.00982638 	0.0124311 24.9821 	0.00957679 	0.0120685 24.982 	0.00960857 	0.0121085 24.982 	0.00964047 	0.0121487 24.9819 	0.00967247 	0.012189 24.9929 	-0.00217192 	0.0136969 24.9815 	0.00942439 	0.0118075 24.9814 	0.00945448 	0.0118451 24.9814 	0.00948466 	0.011883 24.9813 	0.00951494 	0.0119209 24.9928 	0.0124608 	0.0133397 24.9812 	0.00931497 	0.0116435 24.9811 	0.00934381 	0.0116796 24.9811 	0.00937275 	0.0117157 24.981 	0.00940177 	0.011752 24.9925 	-0.00211754 	0.0132648 24.9811 	0.00906337 	0.0112165 24.9811 	0.00908998 	0.0112495 24.981 	0.00911667 	0.0112825 24.981 	0.00914344 	0.0113156 24.9926 	0.0123837 	0.0129915 24.9815 	0.00956509 	0.0115094 24.9815 	0.00959347 	0.0115435 24.9814 	0.00962194 	0.0115778 24.9814 	0.00965049 	0.0116122 24.9926 	-0.00211278 	0.0128914 24.9818 	0.00693118 	0.00902848 24.9818 	0.00694708 	0.00904918 24.9817 	0.00696301 	0.00906993 24.9817 	0.00697898 	0.00909073 24.9928 	0.0124415 	0.0127378 24.9929 	0.0123741 	0.0125521 24.9928 	0.0124517 	0.0126309 24.9928 	0.0125299 	0.0127102 24.9928 	0.0126086 	0.01279 24.9969 	-0.00116542 	0.0138608 24.9927 	0.0122626 	0.0122186 24.9927 	0.0123352 	0.0122909 24.9926 	0.0124081 	0.0123636 24.9926 	0.0124815 	0.0124367 24.997 	0.0147294 	0.012685 24.9933 	0.012994 	0.0126674 24.9932 	0.0130715 	0.0127429 24.9932 	0.0131494 	0.0128189 24.9931 	0.0132277 	0.0128953 24.9972 	-0.00119645 	0.0136514 24.9945 	0.0103295 	0.0105905 24.9945 	0.0103794 	0.0106417 24.9945 	0.0104296 	0.0106931 24.9944 	0.01048 	0.0107448 24.9976 	0.0155552 	0.0126973 24.9982 	0.0164773 	0.0125866 24.9982 	0.0166609 	0.0127269 24.9981 	0.0168466 	0.0128687 24.9981 	0.0170344 	0.0130121 24.9983 	-0.000852095 	0.0151315 24.9977 	0.0176034 	0.0124958 24.9977 	0.0177874 	0.0126264 24.9976 	0.0179733 	0.0127583 24.9976 	0.0181611 	0.0128917 24.998 	0.0189676 	0.00966436 24.9976 	0.0186343 	0.0117986 24.9975 	0.0188093 	0.0119094 24.9975 	0.018986 	0.0120213 24.9975 	0.0191643 	0.0121342 24.9981 	-0.000961669 	0.0146754 24.999 	0.0161229 	0.00932934 24.999 	0.016237 	0.00939534 24.999 	0.0163518 	0.00946181 24.999 	0.0164675 	0.00952875 24.9987 	0.0192738 	0.00933216 24.9994 	0.019558 	0.00897517 24.9994 	0.0198134 	0.00909234 24.9994 	0.020072 	0.00921103 24.9993 	0.020334 	0.00933127 24.995 	-0.000183536 	0.00920364 24.9989 	0.0206147 	0.00863005 24.9989 	0.0208573 	0.00873161 24.9989 	0.0211028 	0.00883436 24.9989 	0.0213511 	0.00893833 24.9975 	0.00766986 	0.00246537 24.9985 	0.0211723 	0.00841346 24.9984 	0.0214034 	0.00850528 24.9984 	0.0216369 	0.00859811 24.9984 	0.0218731 	0.00869195 24.9952 	-0.000258675 	0.00929595 24.9985 	0.0219836 	0.00942463 24.9984 	0.022238 	0.00953369 24.9984 	0.0224953 	0.00964401 24.9984 	0.0227557 	0.00975562 24.9973 	0.00788777 	0.00288734 24.9972 	0.00765143 	0.00311843 24.9971 	0.00770702 	0.00314109 24.9971 	0.00776301 	0.0031639 24.9971 	0.00781941 	0.00318689 24.9986 	-8.39666e-06 	0.00185421 24.9973 	0.00717827 	0.00348111 24.9973 	0.00723459 	0.00350842 24.9973 	0.00729134 	0.00353594 24.9973 	0.00734855 	0.00356368 24.9986 	-1.34182e-05 	0.00197917 24.9974 	0.00703237 	0.00363673 24.9974 	0.007088 	0.00366549 24.9974 	0.00714406 	0.00369449 24.9974 	0.00720057 	0.00372371 24.9986 	-1.54402e-05 	0.00203709 24.9974 	0.00698779 	0.00371983 24.9974 	0.00704234 	0.00374886 24.9974 	0.00709731 	0.00377813 24.9974 	0.00715271 	0.00380762 24.9985 	-1.69148e-05 	0.00207966 24.9974 	0.00697125 	0.00377469 24.9974 	0.00702456 	0.00380355 24.9974 	0.00707827 	0.00383263 24.9973 	0.00713239 	0.00386193 24.9985 	-1.83251e-05 	0.00211677 24.9974 	0.00697125 	0.00381046 24.9974 	0.00702322 	0.00383887 24.9973 	0.00707559 	0.00386749 24.9973 	0.00712834 	0.00389632 24.9985 	-1.94877e-05 	0.0021493 24.9974 	0.00698337 	0.00383154 24.9973 	0.00703398 	0.00385931 24.9973 	0.00708497 	0.00388728 24.9973 	0.00713632 	0.00391546 24.9984 	-2.0373e-05 	0.00217805 24.9973 	0.00700291 	0.00384161 24.9973 	0.00705216 	0.00386862 24.9973 	0.00710175 	0.00389582 24.9973 	0.00715169 	0.00392322 24.9984 	-2.11278e-05 	0.00220455 24.9973 	0.00702884 	0.00384804 24.9973 	0.00707679 	0.00387429 24.9973 	0.00712507 	0.00390072 24.9973 	0.00717368 	0.00392734 24.9984 	-2.18104e-05 	0.00222333 24.9698 	0.00550609 	0.0421177 24.9415 	0.00443664 	0.081563 24.9131 	0.00384948 	0.121204 24.8845 	0.00374813 	0.161043 24.8605 	0.00284851 	0.190872