# vtk DataFile Version 2.0
track0
ASCII
DATASET POLYDATA
POINTS 15205 float
-1.001 -0.05 0.0011
-1.00088 -0.05 0.0011
-1.00076 -0.05 0.00109999
-1.00064 -0.05 0.00109999
-1.00052 -0.05 0.00109999
-1.0004 -0.05 0.00109998
-0.975398 -0.05 0.00109925
-0.9504 -0.0499999 0.00109824
-0.925402 -0.0499999 0.00109723
-0.900404 -0.0499998 0.00109623
-0.875406 -0.0499998 0.00109522
-0.850407 -0.0499998 0.0010941
-0.825407 -0.0499996 0.00109262
-0.800408 -0.0499994 0.00109114
-0.775408 -0.0499993 0.00108966
-0.750409 -0.0499991 0.00108819
-0.737914 -0.049999 0.00108726
-0.72542 -0.0499988 0.00108573
-0.712925 -0.0499986 0.0010842
-0.700431 -0.0499985 0.00108268
-0.687936 -0.0499983 0.00108115
-0.675431 -0.0499983 0.00108008
-0.662926 -0.0499981 0.0010784
-0.65042 -0.0499978 0.00107671
-0.637915 -0.0499976 0.00107503
-0.62541 -0.0499974 0.00107335
-0.612898 -0.0499972 0.00107205
-0.600387 -0.0499969 0.00107012
-0.587876 -0.0499966 0.0010682
-0.575365 -0.0499963 0.00106629
-0.562854 -0.0499961 0.00106437
-0.550338 -0.0499961 0.00106281
-0.537822 -0.0499957 0.00106065
-0.525307 -0.0499953 0.0010585
-0.512791 -0.049995 0.00105635
-0.500275 -0.0499946 0.0010542
-0.487751 -0.0499942 0.00105242
-0.475226 -0.0499937 0.00105011
-0.462701 -0.0499932 0.00104781
-0.450177 -0.0499927 0.00104551
-0.437652 -0.0499922 0.00104321
-0.42513 -0.0499923 0.00104128
-0.412607 -0.0499916 0.00103884
-0.400084 -0.049991 0.00103641
-0.387562 -0.0499903 0.00103398
-0.375039 -0.0499896 0.00103156
-0.362534 -0.0499888 0.00102976
-0.350028 -0.049988 0.00102813
-0.337522 -0.0499872 0.00102649
-0.325017 -0.0499864 0.00102486
-0.312511 -0.0499855 0.00102324
-0.306259 -0.049985 0.00102248
-0.300007 -0.0499841 0.00102118
-0.293755 -0.0499831 0.00101988
-0.287503 -0.0499822 0.00101857
-0.281251 -0.0499812 0.00101727
-0.275 -0.04998 0.00101663
-0.26875 -0.0499789 0.00101564
-0.2625 -0.0499777 0.00101465
-0.25625 -0.0499766 0.00101367
-0.25 -0.0499755 0.00101268
-0.24375 -0.0499749 0.00101227
-0.2375 -0.0499735 0.00101156
-0.23125 -0.0499721 0.00101084
-0.225 -0.0499707 0.00101012
-0.21875 -0.0499693 0.00100941
-0.2125 -0.0499677 0.00100926
-0.20625 -0.049966 0.00100889
-0.2 -0.0499644 0.00100851
-0.19375 -0.0499627 0.00100814
-0.1875 -0.049961 0.00100777
-0.18125 -0.0499603 0.00100799
-0.175 -0.0499583 0.00100808
-0.16875 -0.0499563 0.00100816
-0.1625 -0.0499543 0.00100824
-0.15625 -0.0499523 0.00100833
-0.153125 -0.0499512 0.0010085
-0.15 -0.0499489 0.00100877
-0.146875 -0.0499467 0.00100905
-0.14375 -0.0499444 0.00100932
-0.140625 -0.0499422 0.00100959
-0.1375 -0.0499402 0.00100987
-0.134374 -0.0499376 0.00101035
-0.131249 -0.0499351 0.00101082
-0.128124 -0.0499325 0.0010113
-0.124999 -0.0499299 0.00101178
-0.121874 -0.0499285 0.00101218
-0.118749 -0.0499256 0.00101282
-0.115624 -0.0499228 0.00101347
-0.112499 -0.0499199 0.00101412
-0.109374 -0.049917 0.00101477
-0.106249 -0.0499148 0.00101531
-0.103124 -0.0499117 0.00101608
-0.0999989 -0.0499086 0.00101685
-0.0968739 -0.0499055 0.00101763
-0.0937488 -0.0499024 0.00101841
-0.0906239 -0.0499008 0.00101904
-0.0874989 -0.0498975 0.00101993
-0.0843739 -0.0498941 0.00102082
-0.0812489 -0.0498908 0.00102171
-0.0781239 -0.0498875 0.00102261
-0.0749989 -0.049885 0.00102336
-0.0718739 -0.0498815 0.00102437
-0.0687489 -0.0498779 0.00102537
-0.0656238 -0.0498744 0.00102637
-0.0624988 -0.0498708 0.00102737
-0.0593738 -0.049869 0.00102821
-0.0562488 -0.0498652 0.00102932
-0.0531238 -0.0498615 0.00103043
-0.0499988 -0.0498577 0.00103155
-0.0468738 -0.0498539 0.00103266
-0.0437488 -0.0498512 0.00103362
-0.0406238 -0.0498472 0.00103484
-0.0374988 -0.0498432 0.00103605
-0.0343738 -0.0498392 0.00103727
-0.0312488 -0.0498351 0.00103849
-0.0281239 -0.0498332 0.00103953
-0.0249989 -0.0498289 0.00104085
-0.0218739 -0.0498247 0.00104217
-0.018749 -0.0498205 0.00104349
-0.015624 -0.0498162 0.00104481
-0.012499 -0.0498133 0.00104597
-0.00937393 -0.0498088 0.00104738
-0.00624889 -0.0498043 0.0010488
-0.00312386 -0.0497999 0.00105021
1.18311e-06 -0.0497954 0.00105163
0.00312621 -0.0497932 0.00105287
0.00625124 -0.0497886 0.00105438
0.00937627 -0.0497839 0.00105589
0.0125013 -0.0497792 0.00105741
0.0156263 -0.0497745 0.00105892
0.0187516 -0.0497713 0.00106026
0.0218768 -0.0497664 0.00106187
0.025002 -0.0497615 0.00106347
0.0281273 -0.0497565 0.00106507
0.0312525 -0.0497516 0.00106668
0.0343793 -0.0497493 0.0010681
0.037506 -0.0497441 0.00106979
0.0406327 -0.049739 0.00107149
0.0437595 -0.0497338 0.00107318
0.0468862 -0.0497287 0.00107488
0.050011 -0.0497252 0.0010764
0.0531358 -0.0497199 0.00107817
0.0562606 -0.0497145 0.00107995
0.0593853 -0.0497091 0.00108173
0.0625101 -0.0497038 0.00108351
0.065635 -0.0497012 0.0010851
0.0687598 -0.0496957 0.00108695
0.0718846 -0.0496901 0.00108881
0.0750094 -0.0496845 0.00109067
0.0781342 -0.0496789 0.00109254
0.0812601 -0.0496752 0.00109421
0.084386 -0.0496694 0.00109614
0.0875119 -0.0496636 0.00109808
0.0906377 -0.0496578 0.00110002
0.0937636 -0.0496519 0.00110197
0.0968915 -0.0496492 0.00110371
0.100019 -0.0496432 0.00110572
0.103147 -0.0496372 0.00110773
0.106275 -0.0496312 0.00110975
0.109403 -0.0496251 0.00111177
0.112529 -0.0496212 0.00111358
0.115655 -0.0496149 0.00111566
0.118781 -0.0496087 0.00111774
0.121907 -0.0496025 0.00111983
0.125032 -0.0495962 0.00112192
0.128157 -0.0495933 0.00112379
0.131283 -0.0495869 0.00112593
0.134408 -0.0495805 0.00112808
0.137533 -0.049574 0.00113023
0.140658 -0.0495675 0.00113238
0.143784 -0.0495634 0.00113432
0.146909 -0.0495567 0.00113652
0.150035 -0.0495501 0.00113873
0.153161 -0.0495434 0.00114094
0.156287 -0.0495368 0.00114316
0.159413 -0.0495337 0.00114515
0.16254 -0.0495269 0.00114741
0.165667 -0.04952 0.00114968
0.168794 -0.0495131 0.00115194
0.171921 -0.0495063 0.00115422
0.175047 -0.0495019 0.00115626
0.178172 -0.0494948 0.00115857
0.181298 -0.0494878 0.00116089
0.184424 -0.0494807 0.00116321
0.18755 -0.0494736 0.00116553
0.190674 -0.0494704 0.00116762
0.193799 -0.0494632 0.00116998
0.196923 -0.0494559 0.00117234
0.200048 -0.0494487 0.00117471
0.203172 -0.0494414 0.00117708
0.206296 -0.0494368 0.0011792
0.209421 -0.0494294 0.0011816
0.212545 -0.049422 0.001184
0.215669 -0.0494145 0.00118641
0.218794 -0.0494071 0.00118882
0.221919 -0.0494037 0.00119099
0.225045 -0.0493962 0.00119343
0.22817 -0.0493886 0.00119587
0.231296 -0.0493809 0.00119832
0.234421 -0.0493733 0.00120077
0.237548 -0.0493685 0.00120296
0.240674 -0.0493607 0.00120543
0.2438 -0.0493529 0.00120791
0.246927 -0.0493452 0.00121039
0.250053 -0.0493373 0.00121287
0.25318 -0.0493339 0.0012151
0.256307 -0.0493259 0.00121761
0.259434 -0.049318 0.00122011
0.262561 -0.04931 0.00122263
0.265688 -0.0493021 0.00122514
0.268813 -0.049297 0.00122739
0.271938 -0.049289 0.00122991
0.275062 -0.0492809 0.00123244
0.278187 -0.0492728 0.00123498
0.281312 -0.0492646 0.00123752
0.284435 -0.049261 0.00123979
0.287558 -0.0492528 0.00124234
0.290681 -0.0492446 0.00124489
0.293804 -0.0492363 0.00124744
0.296927 -0.0492281 0.00125
0.30005 -0.0492229 0.00125227
0.303174 -0.0492146 0.00125483
0.306297 -0.0492062 0.0012574
0.309421 -0.0491978 0.00125996
0.312544 -0.0491894 0.00126254
0.315668 -0.0491857 0.00126484
0.318793 -0.0491772 0.00126741
0.321917 -0.0491687 0.00126998
0.325041 -0.0491602 0.00127256
0.328166 -0.0491517 0.00127515
0.331291 -0.0491464 0.00127744
0.334416 -0.0491378 0.00128002
0.337541 -0.0491292 0.0012826
0.340666 -0.0491206 0.00128519
0.343791 -0.0491119 0.00128779
0.346916 -0.0491081 0.0012901
0.350042 -0.0490994 0.00129269
0.353168 -0.0490907 0.00129528
0.356294 -0.0490819 0.00129787
0.35942 -0.0490731 0.00130047
0.362549 -0.0490677 0.00130278
0.365679 -0.0490588 0.00130537
0.368808 -0.04905 0.00130796
0.371938 -0.0490411 0.00131056
0.375068 -0.0490323 0.00131317
0.378205 -0.0490283 0.0013155
0.381343 -0.0490194 0.00131809
0.384481 -0.0490104 0.0013207
0.387619 -0.0490015 0.0013233
0.390756 -0.0489925 0.00132592
0.393889 -0.0489869 0.00132821
0.397022 -0.0489779 0.0013308
0.400155 -0.0489689 0.0013334
0.403288 -0.0489598 0.001336
0.406421 -0.0489508 0.0013386
0.409551 -0.0489468 0.00134091
0.412682 -0.0489377 0.00134349
0.415813 -0.0489286 0.00134608
0.418943 -0.0489195 0.00134867
0.422074 -0.0489103 0.00135126
0.425204 -0.0489047 0.00135355
0.428334 -0.0488955 0.00135612
0.431464 -0.0488863 0.0013587
0.434594 -0.0488771 0.00136128
0.437724 -0.0488679 0.00136387
0.440854 -0.0488639 0.00136616
0.443984 -0.0488546 0.00136873
0.447114 -0.0488454 0.0013713
0.450244 -0.0488361 0.00137387
0.453374 -0.0488268 0.00137645
0.456504 -0.0488211 0.00137871
0.459634 -0.0488118 0.00138126
0.462763 -0.0488025 0.00138382
0.465893 -0.0487931 0.00138638
0.469023 -0.0487838 0.00138895
0.472152 -0.0487797 0.00139121
0.475282 -0.0487703 0.00139375
0.478411 -0.048761 0.00139629
0.481541 -0.0487516 0.00139884
0.48467 -0.0487422 0.00140139
0.4878 -0.0487364 0.00140362
0.490929 -0.048727 0.00140615
0.494058 -0.0487175 0.00140867
0.497187 -0.0487081 0.0014112
0.500317 -0.0486987 0.00141374
0.503446 -0.0486945 0.00141597
0.506575 -0.0486851 0.00141848
0.509704 -0.0486756 0.00142099
0.512833 -0.0486661 0.0014235
0.515962 -0.0486567 0.00142602
0.519091 -0.0486508 0.00142821
0.52222 -0.0486413 0.0014307
0.525348 -0.0486318 0.00143319
0.528477 -0.0486223 0.00143568
0.531606 -0.0486128 0.00143818
0.534734 -0.0486086 0.00144037
0.537863 -0.0485991 0.00144284
0.540992 -0.0485896 0.0014453
0.54412 -0.04858 0.00144778
0.547249 -0.0485705 0.00145025
0.550377 -0.0485645 0.00145241
0.553506 -0.048555 0.00145485
0.556634 -0.0485455 0.00145729
0.559762 -0.0485359 0.00145974
0.562891 -0.0485263 0.0014622
0.566019 -0.0485221 0.00146435
0.569147 -0.0485126 0.00146676
0.572275 -0.048503 0.00146919
0.575403 -0.0484935 0.00147161
0.578532 -0.0484839 0.00147404
0.58166 -0.0484779 0.00147615
0.584788 -0.0484684 0.00147854
0.587915 -0.0484588 0.00148094
0.591043 -0.0484492 0.00148334
0.594171 -0.0484397 0.00148574
0.597299 -0.0484354 0.00148785
0.600427 -0.0484259 0.00149023
0.603555 -0.0484163 0.00149261
0.606683 -0.0484068 0.00149499
[...]
POINT_DATA 15205
 FIELD attributes 2
p 1 15205 float
-4.94488 -4.94645 -4.94802 -4.94959 -4.95116 -4.95273 -5.46505 -5.97664 -6.49872 -7.02082 -7.53991 -8.43189 -9.32881 -10.2257 -11.1207 -11.9735 -12.5494 -13.1388 -13.7281 -14.3175 -14.9749 -15.8063 -16.6294 -17.4526 -18.2757 -19.0956 -20.0505 -21.0029 -21.9554 -22.9078 -23.8661 -25.0313 -26.1875 -27.3437 -28.4999 -29.6589 -31.058 -32.4568 -33.8557 -35.2545 -36.6694 -38.3271 -39.9757 -41.6242 -43.2728 -44.9325 -46.7606 -48.5897 -50.4188 -52.2479 -54.3833 -55.2075 -56.0665 -57.0284 -57.9904 -58.9704 -59.8679 -60.7635 -61.6591 -62.5674 -63.4723 -64.2198 -64.9687 -65.7062 -66.4437 -67.1843 -67.816 -68.4557 -69.0954 -69.7417 -70.3969 -70.9302 -71.4639 -71.979 -72.4834 -72.9491 -73.0505 -73.2082 -73.3659 -73.5237 -73.7454 -73.8885 -74.0433 -74.1982 -74.353 -74.5361 -74.6341 -74.7425 -74.8508 -74.9592 -75.0918 -75.1532 -75.2147 -75.2762 -75.3377 -75.4044 -75.4171 -75.432 -75.4469 -75.4618 -75.4807 -75.4496 -75.4179 -75.3862 -75.3545 -75.3238 -75.247 -75.1702 -75.0934 -75.0166 -74.9407 -74.8227 -74.7029 -74.583 -74.4632 -74.3426 -74.1831 -74.0224 -73.8618 -73.7011 -73.5403 -73.3438 -73.1445 -72.9451 -72.7458 -72.5449 -72.311 -72.0752 -71.8394 -71.6036 -71.3672 -71.101 -70.8312 -70.5613 -70.2914 -70.0197 -69.7205 -69.4191 -69.1178 -68.8164 -68.5145 -68.1889 -67.8592 -67.5295 -67.1998 -66.8682 -66.5154 -66.1604 -65.8054 -65.4504 -65.095 -64.7217 -64.3442 -63.9667 -63.5892 -63.2098 -62.8151 -62.4183 -62.0214 -61.6245 -61.2273 -60.8187 -60.4059 -59.9932 -59.5804 -59.1658 -58.7422 -58.3164 -57.8906 -57.4648 -57.0387 -56.6065 -56.1703 -55.7341 -55.2978 -54.8598 -54.4181 -53.9741 -53.5302 -53.0863 -52.6421 -52.1972 -51.7484 -51.2997 -50.8509 -50.4006 -49.9517 -49.5008 -49.0499 -48.5989 -48.1478 -47.7005 -47.2495 -46.7985 -46.3475 -45.8951 -45.4479 -44.9987 -44.5496 -44.1004 -43.6509 -43.2087 -42.7632 -42.3176 -41.872 -41.425 -40.9868 -40.5467 -40.1066 -39.6665 -39.2262 -38.7965 -38.3638 -37.931 -37.4982 -37.0641 -36.6417 -36.2175 -35.7933 -35.3691 -34.9445 -34.5328 -34.1181 -33.7035 -33.2889 -32.873 -32.4706 -32.0664 -31.6623 -31.2581 -30.8533 -30.4631 -30.0703 -29.6774 -29.2846 -28.8905 -28.5115 -28.1307 -27.7499 -27.3691 -26.9876 -26.6217 -26.2534 -25.885 -25.5167 -25.1472 -24.7934 -24.4377 -24.0821 -23.7265 -23.3702 -23.0306 -22.6887 -22.3469 -22.0051 -21.662 -21.3359 -21.0081 -20.6803 -20.3525 -20.0238 -19.7122 -19.3984 -19.0847 -18.7709 -18.4559 -18.1578 -17.858 -17.5582 -17.2584 -16.9577 -16.6738 -16.3879 -16.1019 -15.816 -15.5288 -15.2583 -14.986 -14.7137 -14.4414 -14.1681 -13.9112 -13.6525 -13.3937 -13.1349 -12.8748 -12.631 -12.3855 -12.14 -11.8944 -11.6477 -11.417 -11.1844 -10.9518 -10.7191 -10.4851 -10.2667 -10.0464 -9.8262 -9.60597 -9.38439 -9.17802 -8.96952 -8.76102 -8.55252 -8.34245 -8.14681 -7.94882 -7.75082 -7.55282 -7.35325 -7.16767 -6.9791 -6.79053 -6.60196 -6.41162 -6.23556 -6.05952 -5.88348 -5.70744 -5.53178 -5.36952 -5.20833 -5.04713 -4.88594 -4.7257 -4.57613 -4.42635 -4.27656 -4.12678 -3.97692 -3.8364 -3.6946 -3.55279 -3.41098 -3.2684 -3.13593 -3.0041 -2.87227 -2.74044 -2.60936 -2.48956 -2.37173 -2.2539 -2.13607 -2.01929 -1.91247 -1.80367 -1.69487 -1.58606 -1.47465 -1.3721 -1.2665 -1.1609 -1.0553 -0.946765 -0.848418 -0.747925 -0.647431 -0.546935 -0.4446 -0.352924 -0.259653 -0.166383 -0.0731129 0.0214704 0.106169 0.192235 0.278301 0.364367 0.45167 0.529868 0.609389 0.68891 0.768432 0.849138 0.921408 0.99481 1.06821 1.14161 1.21606 1.28256 1.35013 1.4177 1.48527 1.55382 1.61494 1.67698 1.73902 1.80106 1.86397 1.91993 1.97677 2.03361 2.09045 2.14815 2.19934 2.25129 2.30324 2.35519 2.40789 2.45451 2.50192 2.54932 2.59672 2.64492 2.6874 2.73057 2.77374 2.81692 2.86078 2.89926 2.93841 2.97756 3.01671 3.05657 3.09124 3.12646 3.16167 3.19689 3.23268 3.26348 3.29482 3.32617 3.35752 3.38943 3.41666 3.4444 3.47215 3.49989 3.52821 3.55183 3.57529 3.59875 3.6222 3.6458 3.66471 3.68412 3.70353 3.72294 3.7443 3.76223 3.78106 3.79989 3.81872 3.83741 3.86525 3.90451 3.94234 3.97913 4.01433 4.0386 4.06431 4.08874 4.11161 4.13636 4.14941 4.16133 4.17418 4.18785 4.2031 4.21632 4.23836 4.25945 4.27954 4.30798 4.3385 4.38623 4.44044 4.49465 4.54039 4.56465 4.58699 4.61012 4.63326 4.6515 4.66435 4.67293 4.6815 4.68943 4.69121 4.67919 4.66473 4.65077 4.63682 4.61839 4.58009 4.53774 4.49539 4.45141 4.40022 4.34886 4.31396 4.28223 4.2505 4.22424 4.05338 4.04744 4.04027 4.03309 4.01984 4.03392 4.03633 4.03873 4.04335 4.03593 3.97234 3.88956 3.77015 3.65073 3.51955 3.28512 3.04498 2.80484 2.62772 2.4555 2.26237 2.09152 1.92066 1.71075 1.63517 1.80948 1.97944 2.1494 2.31935 2.30435 2.22832 2.14756 2.0668 1.98604 1.89641 1.59455 1.29802 1.0015 0.704971 0.502506 0.287161 0.0933387 -0.100486 -0.294312 -0.382179 -0.208479 -0.0307182 0.14704 0.324795 0.438465 0.599794 0.766584 0.933374 1.10016 1.25702 1.35664 1.44332 1.53001 1.61669 1.6935 1.64177 1.57823 1.51468 1.45114 1.31426 1.17463 1.02562 0.876604 0.727592 0.599135 0.518133 0.432658 0.347184 0.261711 0.190037 0.176435 0.160152 0.14387 0.127587 0.114627 0.114085 0.111399 0.108713 0.106027 0.104217 0.101594 0.0972666 0.092939 0.0886116 0.0850326 0.0828594 0.079367 0.0758746 0.0723823 0.0693933 0.0684319 0.066387 0.0643421 0.0622974 0.0605735 0.0610228 0.0606165 0.0602102 0.059804 0.0597519 0.0545305 0.048457 0.0424147 0.0364043 0.0313794
-4.75642 -4.75798 -4.75953 -4.76109 -4.76264 -4.7642 -5.29264 -5.82109 -6.33594 -6.78985 -7.24374 -8.0285 -8.81337 -9.64527 -10.9207 -12.1567 -12.6232 -13.1242 -13.6251 -14.1261 -14.787 -15.618 -16.4169 -17.2159 -18.015 -18.8056 -19.7812 -20.7336 -21.6861 -22.6385 -23.5755 -24.7329 -25.9083 -27.0837 -28.2591 -29.4482 -30.8592 -32.3076 -33.756 -35.2043 -36.6614 -38.2838 -40.0112 -41.7385 -43.4663 -45.2454 -47.0804 -49.0938 -51.1073 -53.139 -55.6107 -56.4932 -57.375 -58.392 -59.3206 -60.2354 -61.2483 -62.2517 -63.1712 -63.9853 -64.7868 -65.6143 -66.4404 -67.2414 -67.9825 -68.7181 -69.4162 -70.1136 -70.8033 -71.4475 -72.0872 -72.6465 -73.2045 -73.7434 -74.3067 -74.8775 -74.9969 -75.1521 -75.3033 -75.4546 -75.6637 -75.8009 -75.9498 -76.0987 -76.2552 -76.4432 -76.554 -76.6629 -76.766 -76.869 -76.9845 -77.0403 -77.0983 -77.1564 -77.2173 -77.2852 -77.2962 -77.3094 -77.322 -77.3347 -77.3513 -77.3172 -77.2851 -77.253 -77.2209 -77.1904 -77.1085 -77.0283 -76.9494 -76.8705 -76.7929 -76.6679 -76.5445 -76.4212 -76.2952 -76.1689 -75.9976 -75.8284 -75.6632 -75.498 -75.3334 -75.1272 -74.9223 -74.7174 -74.5069 -74.2954 -74.0443 -73.7946 -73.5519 -73.3093 -73.0668 -72.8083 -72.5504 -72.2926 -72.0283 -71.7776 -71.754 -71.7304 -71.7067 -71.6831 -71.6595 -71.3384 -71.0173 -70.7064 -70.3958 -70.0853 -69.745 -69.4058 -69.0651 -68.7149 -68.3663 -67.9889 -67.6124 -67.2445 -66.8792 -66.5145 -66.1236 -65.7357 -65.3434 -64.9434 -64.547 -64.1257 -63.7062 -63.2928 -62.885 -62.4785 -62.0492 -61.6253 -61.1939 -60.7579 -60.328 -59.8762 -59.4276 -58.9819 -58.5447 -58.1102 -57.6547 -57.2075 -56.7498 -56.2907 -55.8407 -55.3696 -54.9036 -54.4376 -53.9822 -53.5316 -53.0602 -52.5986 -52.1276 -51.6567 -51.1981 -50.7183 -50.2463 -49.7743 -49.3086 -48.8535 -48.3769 -47.9106 -47.4389 -46.9672 -46.5112 -46.0324 -45.5638 -45.0954 -44.6295 -44.1794 -43.7059 -43.2434 -42.7791 -42.3147 -41.8692 -41.3986 -40.941 -40.4834 -40.0257 -39.5878 -39.125 -38.6761 -38.2272 -37.7783 -37.3457 -36.8944 -36.455 -36.0156 -35.5761 -35.148 -34.7092 -34.2798 -33.8507 -33.4216 -33.0011 -32.5768 -32.1592 -31.7417 -31.3237 -30.9095 -30.4993 -30.0935 -29.6882 -29.2829 -28.8785 -28.7837 -28.6897 -28.5957 -28.5016 -28.4078 -28.1088 -27.8098 -27.5108 -27.2109 -26.9112 -26.5284 -26.1477 -25.7676 -25.3875 -25.0081 -24.6392 -24.2735 -23.9077 -23.5413 -23.1764 -22.8204 -22.469 -22.1182 -21.7675 -21.4188 -21.0769 -20.7408 -20.4048 -20.068 -19.7342 -19.4057 -19.0836 -18.7621 -18.4408 -18.1224 -17.8084 -17.5008 -17.194 -16.8872 -16.5835 -16.2846 -15.99 -15.6977 -15.4067 -15.1177 -14.8335 -14.5525 -14.2746 -13.9982 -13.7235 -13.454 -13.1862 -12.9224 -12.6612 -12.401 -12.1454 -11.8906 -11.6406 -11.3937 -11.1471 -10.9057 -10.6643 -10.4278 -10.1952 -9.96246 -9.73421 -9.50595 -9.28246 -9.06265 -8.84283 -8.62802 -8.41322 -8.20255 -7.99593 -7.7893 -7.58681 -7.38431 -7.18591 -6.99131 -6.7967 -6.60688 -6.41706 -6.23096 -6.04873 -5.8665 -5.68814 -5.50978 -5.33538 -5.16441 -4.99344 -4.82707 -4.66116 -4.49827 -4.33831 -4.17899 -4.02314 -3.86841 -3.7164 -3.56636 -3.41735 -3.2725 -3.12916 -2.98753 -2.84744 -2.70916 -2.57365 -2.44047 -2.30868 -2.17774 -2.04871 -1.92317 -1.8001 -1.67766 -1.55559 -1.43634 -1.31907 -1.20527 -1.09163 -0.977974 -0.866744 -0.758569 -0.653099 -0.547676 -0.442268 -0.339119 -0.238646 -0.140937 -0.0432162 0.0545835 0.150945 0.243326 0.333903 0.42436 0.514802 0.604077 0.689221 0.772773 0.856329 0.940026 1.02312 1.10108 1.17826 1.25529 1.33231 1.40906 1.45611 1.50279 1.54946 1.59614 1.6433 1.66761 1.69192 1.71623 1.74055 1.76435 1.8305 1.89619 1.96171 2.02723 2.09093 2.15252 2.21255 2.27258 2.3328 2.38969 2.44762 2.5027 2.55757 2.61244 2.66297 2.71679 2.76686 2.81694 2.86721 2.91152 2.96239 3.00816 3.05374 3.09932 3.1382 3.18539 3.22681 3.26824 3.30983 3.34305 3.38792 3.42564 3.4632 3.50009 3.52946 3.57006 3.60497 3.6389 3.67101 3.69645 3.73423 3.76703 3.79766 3.82538 3.84806 3.88208 3.91191 3.93901 3.96291 3.98187 4.01345 4.03988 4.06405 4.08579 4.1024 4.13123 4.15506 4.1768 4.196 4.20996 4.2408 4.26045 4.2758 4.28811 4.28964 4.32607 4.35292 4.38132 4.41346 4.4359 4.47054 4.49635 4.52216 4.54838 4.56991 4.60048 4.62208 4.64235 4.66261 4.67909 4.6961 4.70828 4.72047 4.73266 4.74676 4.77414 4.80152 4.8056 4.76998 4.73436 4.8248 4.91523 4.93868 4.89591 4.85313 4.92487 4.99661 5.00248 4.94014 4.87779 4.94184 5.00587 4.99425 4.90698 4.8197 4.85625 4.8928 4.86183 4.76107 4.66031 4.72967 4.79903 4.75459 4.60432 4.45404 4.36268 4.287 4.23035 4.1737 4.09307 4.22847 4.24259 4.25653 4.27048 4.15479 4.20502 4.09563 3.98625 3.88323 3.6847 3.5258 3.33797 3.14043 2.94289 2.73787 2.29431 1.88709 1.53105 1.32962 1.30908 1.52373 1.6889 1.95962 2.36438 2.6021 2.72882 2.75762 2.7435 2.66831 2.51222 2.1734 1.88379 1.59679 1.3106 1.08246 0.722154 0.544894 -0.0169473 -0.502506 -0.610133 -0.464387 -0.288959 -0.11356 0.029767 0.121188 0.195587 0.241151 0.399826 0.55846 0.665804 0.81244 0.890378 0.96828 1.05205 1.07833 1.055 0.97906 0.902897 0.995529 1.0575 1.07407 0.92447 0.774448 0.624425 0.456253 0.456138 0.372106 0.28613 0.200153 0.108207 0.12647 0.111192 0.0945462 0.0778996 0.055933 0.0740715 0.0722282 0.069258 0.0662874 0.0587124 0.0699003 0.0664764 0.0619336 0.0573905 0.0495125 0.0569296 0.0542444 0.0505863 0.0469278 0.0408666 0.0471292 0.0458408 0.0436655 0.0414899 0.037474 0.0438933 0.044274 0.0437687 0.0432631 0.0414674 0.0480118 0.04404 0.0378847 0.0317196 0.0247684
-4.56399 -4.56549 -4.56699 -4.56849 -4.56999 -4.57149 -5.08566 -5.55856 -6.0315 -6.50242 -6.96076 -7.76883 -8.65026 -9.53171 -10.3558 -11.4954 -11.9996 -12.5171 -13.0347 -13.5438 -14.1412 -14.9534 -15.7338 -16.487 -17.2403 -17.9863 -18.9578 -19.9058 -20.8539 -21.8061 -22.7462 -23.9417 -25.1317 -26.3495 -27.5673 -28.7774 -30.2693 -31.8413 -33.4134 -34.8909 -36.4325 -38.2499 -40.0193 -41.9722 -43.9233 -45.8046 -47.8657 -50.1626 -52.4674 -54.7596 -57.5468 -58.4482 -59.3876 -60.3225 -61.2151 -62.4131 -63.5416 -64.5872 -65.612 -66.6399 -67.7251 -68.7215 -69.6341 -70.543 -71.4655 -72.4657 -73.3184 -74.1109 -74.8956 -75.6829 -76.5333 -77.2332 -77.8478 -78.463 -79.2214 -79.9279 -80.0774 -80.2656 -80.4516 -80.633 -80.8667 -81.0328 -81.2214 -81.4047 -81.5848 -81.7888 -81.9194 -82.053 -82.191 -82.3346 -82.4814 -82.5667 -82.6532 -82.7371 -82.8178 -82.9016 -82.9202 -82.9413 -82.964 -82.988 -83.0134 -82.9858 -82.9578 -82.9307 -82.9049 -82.8801 -82.7968 -82.7157 -82.6296 -82.5423 -82.4562 -82.3146 -82.1723 -82.0309 -81.8992 -81.7679 -81.5869 -81.4075 -81.2158 -81.0244 -80.8346 -80.5943 -80.3532 -80.1124 -79.886 -79.6639 -79.3988 -79.1287 -78.8475 -78.5666 -78.2863 -78.1384 -77.9905 -77.8426 -77.6948 -77.5514 -77.3768 -77.2022 -77.032 -76.8657 -76.6994 -76.3612 -76.0074 -75.6479 -75.2885 -74.9307 -74.5393 -74.1479 -73.7568 -73.3658 -72.9932 -72.5889 -72.1679 -71.747 -71.3264 -70.9095 -70.4655 -70.0215 -69.5777 -69.134 -68.6971 -68.2344 -67.7693 -67.3051 -66.841 -66.3787 -66.2212 -66.0637 -65.9062 -65.7487 -65.5953 -65.2723 -64.9493 -64.6264 -64.3035 -63.9802 -63.4819 -62.9894 -62.4971 -62.0049 -61.5119 -60.9994 -60.4984 -59.9976 -59.4969 -58.9888 -58.4585 -57.9496 -57.4408 -56.9321 -56.4233 -55.8969 -55.3859 -54.875 -54.3556 -53.8349 -53.2967 -52.7725 -52.2598 -51.7472 -51.2349 -50.7065 -50.1961 -49.6858 -49.1533 -48.6388 -48.1078 -47.5814 -47.0707 -46.5639 -46.0585 -45.5393 -45.0403 -44.5295 -44.009 -43.5097 -42.9953 -42.4857 -41.9774 -41.4856 -40.9949 -40.4911 -40.0045 -39.5035 -39.0044 -38.5247 -38.0313 -37.5432 -37.0559 -36.5739 -36.1053 -35.6253 -35.1507 -34.6771 -34.2035 -33.7469 -33.2814 -32.8222 -32.363 -31.9032 -31.4519 -31.0029 -30.5577 -30.1132 -29.6687 -29.2259 -29.1182 -29.0113 -28.9044 -28.7975 -28.6909 -28.3677 -28.0445 -27.7213 -27.3967 -27.074 -26.6539 -26.2398 -25.8265 -25.4132 -25.0036 -24.5956 -24.1997 -23.8037 -23.4067 -23.0172 -22.6222 -22.2404 -21.8617 -21.4852 -21.1131 -20.7363 -20.3661 -20.0044 -19.6478 -19.2934 -18.9344 -18.5771 -18.2331 -17.8948 -17.5579 -17.2167 -16.8775 -16.548 -16.2267 -15.9071 -15.5834 -15.2602 -14.9459 -14.643 -14.3405 -14.0339 -13.7285 -13.4313 -13.1426 -12.8566 -12.567 -12.282 -12.0017 -11.7244 -11.455 -11.1813 -10.9152 -10.6512 -10.3873 -10.1327 -9.87722 -9.62923 -9.38106 -9.13225 -8.88889 -8.65149 -8.41805 -8.18512 -7.9524 -7.72055 -7.67019 -7.62058 -7.57098 -7.52137 -7.47165 -7.30185 -7.13203 -6.96176 -6.79148 -6.62397 -6.41496 -6.20882 -6.003 -5.79741 -5.59816 -5.39918 -5.20717 -5.01492 -4.82244 -4.63953 -4.4519 -4.27147 -4.09222 -3.91638 -3.74754 -3.572 -3.40068 -3.23375 -3.07299 -2.91554 -2.75285 -2.59077 -2.43561 -2.29072 -2.14586 -1.99394 -1.84199 -1.69864 -1.56384 -1.42905 -1.28878 -1.14851 -1.01654 -0.893214 -0.769903 -0.639063 -0.508319 -0.387403 -0.272624 -0.158436 -0.038382 0.0786497 0.189871 0.29721 0.401141 0.513031 0.618434 0.720604 0.821818 0.917931 1.02014 1.11397 1.20769 1.30142 1.38989 1.48217 1.56802 1.65386 1.73976 1.82337 1.90488 1.98346 2.06192 2.14038 2.21854 2.22791 2.23691 2.24591 2.25491 2.26392 2.3276 2.39128 2.45495 2.51875 2.57982 2.64826 2.71466 2.78093 2.84719 2.90854 2.97213 3.03226 3.09238 3.15263 3.20427 3.26469 3.31941 3.37374 3.4263 3.47272 3.52649 3.57738 3.62605 3.67074 3.71092 3.76078 3.806 3.84946 3.89032 3.9268 3.97072 4.01144 4.05012 4.08491 4.11594 4.15667 4.19142 4.22502 4.25795 4.28587 4.32129 4.35319 4.38209 4.40939 4.43257 4.46537 4.49147 4.51621 4.54198 4.56254 4.59057 4.61382 4.63499 4.65576 4.67209 4.69803 4.71652 4.73455 4.75278 4.76664 4.78795 4.80284 4.81755 4.83225 4.84348 4.86119 4.87269 4.88419 4.89568 4.90543 4.91757 4.92456 4.93155 4.93854 4.94454 4.96826 4.99289 5.00878 5.01848 5.0257 5.04925 5.06767 5.07839 5.08807 5.09258 5.10323 5.10519 5.10715 5.11421 5.11734 5.12215 5.12125 5.11721 5.11317 5.10528 5.07951 5.01692 4.9854 4.97788 4.96188 4.9928 5.00379 5.01332 5.02127 5.02635 5.02871 5.02719 5.02568 5.02417 5.02266 5.02272 5.02279 5.02528 5.02776 5.00478 5.00736 4.98907 4.96842 4.94596 4.87624 4.87422 4.83249 4.7937 4.75939 4.64872 4.65947 4.62497 4.57899 4.51995 4.3868 4.25264 4.18861 4.12248 4.03967 3.87468 4.19966 4.27825 4.32134 4.32962 4.12462 4.29507 4.19975 4.07343 3.92606 3.52711 3.56977 3.20781 2.84588 2.49025 2.05991 1.70701 1.5183 1.32963 1.14101 1.02172 1.03634 1.04422 1.0521 1.05998 1.10376 1.47485 1.84612 2.21759 2.58925 2.58817 3.21189 3.29705 3.33486 3.27528 2.59211 2.92567 2.60613 2.2869 1.96798 1.2975 0.49722 -0.211844 -0.455328 -0.697687 -0.827198 -0.680022 -0.525476 -0.407066 -0.288588 -0.197061 -0.137135 -0.15145 -0.165757 -0.118613 -0.0132392 0.118183 0.193976 0.272086 0.350739 0.375836 0.334236 0.428403 0.542311 0.658449 0.722842 0.736083 0.722705 0.587808 0.436986 0.269193 0.267509 0.255019 0.180689 0.0942574 0.0022264 0.0195785 0.0301073 0.0189735 0.00200813 -0.0199638 -0.00248196 0.00967134 0.010466 0.00725249 -0.000310521 0.0104018 0.017212 0.0160562 0.0113268 0.00343342 0.0105092 0.0147728 0.0138614 0.0100563 0.003961 0.0099694 0.0138294 0.0140448 0.0117534 0.00769875 0.0139325 0.0186202 0.0204362 0.0198412 0.0180035 0.0244113 0.0296139 0.0291828 0.022998 0.0160553