# vtk DataFile Version 2.0
sampleSurface
ASCII
DATASET POLYDATA
POINTS 14144 float
-4 2.4359e-17 0.213991 -5 -7.03332e-17 0.24832 -5 -8.78968e-17 1.19622 -4 0
1.15978 -3 3.30872e-24 1.09917 -3 2.12034e-17 0.618363 -3 6.61744e-24 0.144377
1.00049 2.71051e-19 0.0377466 1.032 0 0.0376088 1.03198 -2.76472e-18 0.00937487 1.00051
0 0.00937499 5 2.37371e-18 0.0807757 5.0625 0 0.0807864 5.0625 -2.32186e-18
0.01875 5 -7.88861e-31 0.01875 6 -4.59957e-19 0.0809059 6.0625 0 0.0809118
6.0625 -1.44624e-18 0.01875 6 -1.97215e-31 0.01875 7 -9.10076e-19 0.0809817 7.0625
0 0.0809867 7.0625 -7.45877e-19 0.01875 7 0 0.01875 8 2.16089e-18
0.0810315 8 0 0.143317 8.125 0 0.152582 8.125 -3.0713e-18 0.0282186
8 -7.88861e-31 0.01875 9 -3.36839e-18 0.322117 9 -7.14776e-18 0.569424 9.5
-1.00974e-28 0.605111 9.5 1.54025e-18 0.112989 9 0 0.075 11 0
0.22013 10 -1.00974e-28 0.144966 10 -1.07672e-17 0.635459 10 0 1.12676
11 0 1.19261 12 0 0.268044 12 0 1.23454 13
0 0.290282 13 -5.04871e-29 1.254 14 -2.52435e-29 0.29776 14 0
1.26054 15 -9.61216e-18 1.26203 15 0 0.299458 -5 -1.05512e-16 2.15667
-4 0 2.11862 -3 0 2.06503 -3 -3.42204e-17 1.58106 -1.00144
3.38813e-21 1.00095 -1.00156 2.6834e-18 1.06317 -0.939104 0 1.06315 -0.939024 0
1.00083 0.00102175 -1.35525e-20 1.00018 0.00157824 -1.3146e-18 1.01503 0.0193806 -5.42101e-20 1.01315
0.0168153 0 1.00027 5 0 1.01287 5 -2.48715e-18 1.07512 5.0625
0 1.07524 5.0625 0 1.01299 6 0 1.01429 6 3.11075e-18
1.07657 6.0625 0 1.07664 6.0625 0 1.01435 7 0 1.01514
7 -1.05712e-18 1.07746 7.0625 0 1.07751 7.0625 0 1.01518 8
-4.76227e-19 1.07803 8 -1.97215e-31 1.14036 8.125 0 1.14821 8.125 -1.57772e-30
1.02371 8 -3.9443e-31 1.0157 9 9.89212e-18 1.312 9 -1.17997e-17 1.55979
9.5 -5.04871e-29 1.59144 9.5 0 1.09792 9 0 1.06435 10
-1.40371e-17 1.61778 10 -1.00974e-28 2.10872 11 0 2.1651 12 -5.04871e-29
2.20103 13 0 2.21771 14 2.52435e-29 2.22332 15 2.88049e-17 2.22459
-5 5.16988e-26 2.5257 -4.99992 -5.07475e-22 3.13073 -4.00007 0 3.09448 -3.00072
6.77626e-21 3.04721 -3.00013 -5.74204e-18 2.55367 -5 0 3.13073 1.00096 2.71051e-20
2.00453 1.00095 -5.55654e-18 2.06706 1.06354 0 2.06709 1.06354 -2.71051e-20 2.00457
4.0625 0 2.06715 4.05722 0 2.07057 4.0625 0 2.07058 5
-3.9443e-31 2.01012 5 2.08749e-18 2.07242 5.0625 0 2.07251 5.0625 0
2.0102 6 0 2.01137 6 -2.47753e-18 2.0737 6.0625 -9.86076e-32 2.07378
6.0625 0 2.01144 7 -1.2326e-32 2.01243 7 2.62598e-18 2.07479 7.0625
0 2.07485 7.0625 0 2.01249 8 1.04356e-18 2.08227 8 1.97215e-31
2.14458 8.125 0 2.14473 8.125 0 2.02011 8 0 2.01997
9 6.90882e-18 2.30391 9 -3.1382e-18 2.55156 9.5 -1.00974e-28 2.57778 9.5
0 2.08482 9 -2.52435e-29 2.05574 10 -1.30369e-17 2.59966 10 0
3.0906 11 0 3.13758 12 0 3.16753 13 0 3.18143
14 0 3.1861 15 2.34283e-17 3.18716 -5 0 3.13082 -5
-2.8246e-17 4.11557 -4.00039 0 4.08378 -3.0018 -5.42101e-20 4.04421 -3.00113 -5.96311e-18
3.54412 -2 0 3.5 -2 -5.16988e-26 3.28376 -2 0 3.5
1.25056 1.35525e-20 3.00462 1.15858 0 3.00379 1.14482 0 3.25366 1.25048
-1.35525e-20 3.25461 3 0 3 3 -1.28799e-17 3.25 3.25 0
3.25 3.25 0 3 4 0 3 4 -1.89592e-18 3.25
4.00002 0 3.25 4 1.29247e-26 3 5 3.23117e-27 3.00777 5
4.56496e-18 3.25741 5.25 0 3.25778 5.25 3.23117e-27 3.00815 6 8.07794e-28
3.00926 6 -8.18032e-18 3.25887 6.25 0 3.2592 6.25 0 3.00959
7 4.03897e-28 3.0105 7 -1.44313e-18 3.26012 7.25 0 3.26039 7.25
0 3.01077 8 0 3.01729 8 9.51297e-18 3.26675 8.25 -1.00974e-28
3.28251 8.25 0 3.03422 9 -1.13316e-17 3.54219 9.5 2.01948e-28 3.56373
9.5 0 3.07075 9 0 3.04688 10 1.44621e-17 3.58154 10
0 4.07248 11 0 4.11006 12 0 4.13402 13 0
4.14514 14 0 4.14888 15 -2.58351e-17 4.14973 -5 7.05274e-17 5.09312
-3.99993 0 5.08025 -3.00007 2.1684e-19 5.04778 -2.00009 1.35525e-20 5.00153 -2.00038
-3.91939e-17 4.50134 -2.00045 0 4.00114 -2.50021 -5.28549e-18 4.00124 2.00133 2.71051e-20
4.00354 2.001 2.18196e-17 4.50355 2.5 2.06795e-25 4.5 2.5 0 4
3 0 4 3 -3.80475e-17 4.5 3.5 1.03398e-25 4.5 3.5
0 4 4 -1.03398e-25 4 4 -4.06264e-17 4.5 4.5 0
4.5 4.5 -5.16988e-26 4.49997 4.00003 1.03398e-25 4 6 1.29247e-26 4.00805
6 0 4.00873 6.49942 -6.72084e-25 4.50825 6.5 0 4.50825 6.5
0 4.00867 7 0 4.00923 7 -1.07652e-17 4.5082 7.5 0
4.50825 7.5 0 4.00941 8 0 4.01411 8 8.79829e-18 4.51234
8.5 0 4.52411 8.5 0 4.0275 9.5 -4.03897e-28 4.05671 9
0 4.0375 9 -1.14067e-17 4.53281 9 0 5.04224 10 0
5.05436 11 -4.03897e-28 5.08255 12 0 5.10052 13 -1.00974e-28 5.10886
14 0 5.11166 15 -5.02169e-17 5.1123 -5 5.94956e-18 6.06208 -3.9997
-1.0842e-19 6.05349 -2.99997 -1.35525e-20 6.0012 -1.99997 0 6.00128 -0.999976 5.33156e-17
5.00167 -1.50007 -1.58565e-17 5.00158 -0.999953 0 6.00136 6.79777e-05 -7.72494e-18 5.00191
-0.49994 -3.70797e-17 5.00179 5.0325e-05 0 6.0014 1.00008 2.57769e-17 5.00203 0.500073
-1.10318e-17 5.00204 1.00007 0 6.0014 2.0004 -1.35525e-20 5.74227 1.69151 -1.35525e-20
5.00239 1.50013 -4.32868e-17 5.00186 2.00025 0 6.00134 2.99998 9.42159e-22 6
6.00005 5.29396e-23 5.00703 5.50018 2.11758e-22 5.00709 5.38228 2.11758e-22 5.00695 6.00006
0 5.03909 7 0 5.00703 6.5 -2.46811e-17 5.00709 6.96544 -7.41154e-22
6.00469 7.00005 -5.29396e-23 6.00469 8 2.81435e-24 5.02081 7.49917 1.22785e-25 5.00709
8.00001 -6.61744e-24 6.01366 8.99969 3.26672e-24 6.02817 2.00083 -2.71051e-20 5.00325 3
2.06795e-25 6 3 -1.58161e-18 5 2.5 0 5 4 0
6 4 -3.39991e-17 5 3.5 1.03398e-25 5 5.0014 0 5.00651
4.5 0 5 5 5.16988e-26 6 6.00046 0 6.00466 8
0 5.02048 7.5 0 5.00709 8.5 0 5.02072 9 3.23117e-27
6.02817 10 -1.61559e-27 6.03624 11 8.07794e-28 6.05503 12 -4.03897e-28 6.06701
13 0 6.07257 14 0 6.07444 15 3.70132e-17 6.07486 -5
-3.24312e-17 7.03104 -3.99982 0 7.02674 -2.99998 0 7.00061 -1.99998 6.77626e-21
7.00065 -0.999976 0 7.00068 2.48667e-05 6.77626e-21 7.0007 1.00003 -6.77626e-21 7.0007
2.00006 -6.77626e-21 7.00068 2.60139 0 7.00101 7.00005 0 6.16302 7.98805
3.30872e-24 7.00678 8 0 7.00683 8.99921 0 7.01409 3.00043 0
7.00122 4 0 7 5 0 7 6.00035 -6.77626e-21 7.00232
7.00003 0 7.00234 9 0 7.01409 10 0 7.01812 11
0 7.02752 12 0 7.03351 13 0 7.03629 14 0
7.03722 15 2.98328e-17 7.03743 -4 -7.90671e-21 8 -5 -1.84332e-21 7.99999
-3 6.79012e-22 7.99999 -2 8.81361e-22 7.99999 -1 -2.28726e-21 7.99999 7.32374e-09
8.87565e-22 7.99999 1 2.82544e-21 7.99998 2 2.41806e-21 7.99998 8 -1.70606e-24
7.99828 -4 0 8 -5 -5.16988e-26 8 -3 0 8
-2 -1.03398e-25 8 -1 0 8 6.95393e-09 0 8 1
0 8 2 0 8 3 -1.03398e-25 8 4 0
8 5 0 8 6 0 8 7 0 8
8 6.46235e-27 8 9 0 8 10 0 8 11
8.07794e-28 8 12 4.03897e-28 8 13 0 8 14 0
8 15 -5.04871e-29 8 -0.999964 1.05879e-22 0.01875 -0.999962 2.11758e-22 0.0792239
-0.937452 -2.11758e-22 0.0789879 -0.937452 -7.67624e-19 0.01875 -0.0102783 0 0.985301 -0.0157641
-6.77626e-21 0.985342 -0.0153844 0 0.990908 1.99923 1.13841e-18 0.0752478 1.99924 0
0.0183062 1.93651 -3.82181e-18 0.01719 1.93651 -1.35525e-20 0.072745 1.93761 -1.36881e-18 1.0004
2.00009 0 1.00025 2.00004 0 0.937788 1.93753 -2.71051e-20 0.937954 -0.93899
-3.38813e-21 0.938435 -1.00144 1.69407e-21 0.938476 0.000497998 -7.04731e-19 0.985218 -0.0147548 -6.77626e-21
1.00012 0.969069 -2.98156e-18 0.009375 0.969041 2.71051e-20 0.0378507 0.0157615 0 0.986027
-0.00102467 -2.20906e-18 1.93926 -0.000889311 0 2.00183 0.0617038 0 2.00198 0.0615898
0 1.93943 2.00014 3.97089e-18 1.06267 1.93771 0 1.06275 2 0
1.99999 2 -1.05879e-22 1.93749 1.9375 0 1.93749 1.9375 1.8036e-18 1.99999
1.00094 -4.03865e-18 1.94198 0.9383 0 1.94194 0.93837 1.35525e-20 2.00449 1.06352
0 1.94204 2.06193 -1.35525e-20 0.0765379 2.06193 -4.68917e-18 0.0186528 3 -1.81039e-18
0.0799561 3 1.32349e-23 0.01875 2.9375 1.22555e-18 0.01875 2.9375 0 0.079892
2.06256 -6.77626e-21 1.00015 2.06253 -6.77626e-21 0.937681 2.9375 -2.42535e-18 1.00249 3
0 1.00322 3 -6.61744e-24 0.941243 2.9375 0 0.940625 0.50047 6.77626e-21
0.027037 0.50044 -6.77626e-21 0.00937499 0.469159 0 0.00937489 0.469163 0 0.011084
-0.0309658 0 1.00178 -0.0288823 0 1.00037 -0.0311024 1.69407e-21 1.0004 -1
2.65061e-18 1.9375 -1 0 2 -0.9375 -8.27181e-25 2 -0.9375 0
1.9375 -0.0635166 5.74627e-18 2.00167 -0.0635912 0 1.93911 2.06259 0 1.06261
3 -3.76144e-18 1.06544 2.93751 -1.32349e-23 1.06468 2.0625 0 2 2.0625
5.29396e-23 1.93749 3 0 2 3 0 1.9375 2.9375 2.06795e-25
1.9375 2.9375 -5.82667e-18 2 -0.0282619 0 1.029 0.00353532 0 1.02858
0.000751005 5.29396e-23 1.43704 0.00111654 0 1.43671 0.000760055 0 1.43671 0.000285858
2.71051e-20 0.498141 0.000156034 0 0.484128 -0.0155977 0 0.48402 -0.0152721 7.86047e-19
0.496509 -0.501601 -3.38813e-21 0.500645 -0.439154 -6.77626e-21 0.500755 -0.439077 -1.35525e-20 0.469314
-0.439023 1.35525e-20 0.437969 -0.501413 1.86347e-18 0.43787 -0.501826 0 1.00057 -0.439211
0 1.00054 -0.439163 -3.38813e-21 0.937938 -0.501777 3.66935e-18 0.937998 -0.501723 1.69407e-21
0.563398 -0.439157 -3.38813e-21 0.563487 0.500489 -3.38813e-21 0.0380538 0.469222 6.77626e-21 0.038325
0.0160838 -1.6263e-18 0.498552 0.0160288 5.42101e-20 0.483976 0.486228 0 0.487123 0.491214
-1.0842e-19 0.502479 0.492708 5.42101e-20 0.504765 0.50055 0 0.496218 0.507957 0
0.037948 1.00164 0 0.502496 1.00002 -1.0842e-19 0.486158 0.981588 -5.42101e-20 0.484933
0.982133 1.0842e-19 0.488709 0.988978 0 0.498108 0.500602 0 0.984593 0.500842
1.35525e-20 0.98278 0.493365 -1.35525e-20 0.983045 0.510209 0 0.999714 0.515104 -5.42101e-20
0.998796 0.51601 1.35525e-20 0.981869 1.01493 0 0.501977 1.01456 0 0.487268
1.93852 7.96889e-18 0.50049 2.00137 -1.35525e-20 0.500497 2.00112 -1.35525e-20 0.437781 1.93848
0 0.437755 1.00241 1.0842e-18 0.515574 1.01421 5.42101e-20 0.514355 1.967 1.69407e-21
0.563175 2.00134 0 0.549347 1.93851 0 0.563152 -0.499479 1.21973e-19 0.0738711
-0.43682 -1.69407e-21 0.0700973 -0.436806 -1.79793e-18 0.0140688 -0.499477 2.11758e-22 0.0169442 0.531691
2.24972e-18 0.009375 0.531738 0 0.0376102 0.982897 1.0842e-19 0.495945 0.485506 0
0.983329 0.485307 -8.13152e-19 1.0033 0.498394 0 1.00212 2.00133 -3.38813e-21 0.563203
-0.00096927 0 1.5006 0.0614961 0 1.50042 0.061972 0 1.43772 0.500021
-2.71051e-20 1.50241 0.499988 0 1.47142 0.46837 0 1.47148 0.468409 -3.52366e-19
1.50251 0.504906 0 1.01011 0.511229 -1.0842e-19 1.01789 0.531565 0 1.50217
[...]
POINT_DATA 14144
FIELD attributes 1
p 1 14144 float
2.4742 2.26742 2.09514 2.26557 3.06155 3.5122 3.5216 4.57114 13.5097 13.6283 4.72076
-0.415789 -0.439824 0.552081 0.599436 -0.395916 -0.38231 0.312836 0.313844 -0.267822 -0.273276
0.257657 0.270934 -0.54977 -0.803608 -0.389273 -0.0702752 -0.201266 -1.00505 -0.422624 -1.10099
-1.33984 -1.18631 0.797166 -1.62193 -1.20024 -0.0208427 0.462113 0.756379 0.400466 0.359068
0.17292 0.14013 0.053782 0 0 1.73284 1.82002 2.18965 2.70677 14.0508
13.5399 14.5253 15.3158 81.1885 73.9113 71.5705 77.9103 1.08235 1.07177 1.01839
1.02699 0.445342 0.44763 0.418197 0.414293 0.0723494 0.0870519 0.0670247 0.0504509 -0.160542
-0.109514 -0.123673 -0.246167 -0.195695 -0.0763558 0.090519 -0.0135156 -0.188806 -0.223859 0.0554608
0.0851147 0.170184 0.130929 0.0672991 0.0245314 0 1.5769 1.32122 1.34228 1.40714
1.78389 1.32122 -11.4754 -10.348 -10.2197 -11.2941 0.118206 0.113093 0.113989 0.165196
0.123871 0.119387 0.158953 0.0594313 0.0391134 0.0338869 0.0532447 -0.0179741 -0.0265347 -0.0288777
-0.0208463 -0.0398426 -0.0436874 -0.0436597 -0.0403099 -0.0374967 -0.0182813 -0.0331011 -0.00850585 0.00643465
-0.0192747 0.0135948 -0.0226706 0.0158978 0.038972 0.0374422 0.0199595 0 1.32119 0.963515
0.951758 0.886902 1.1071 1.00549 1.18847 1.0055 -3.16708 -3.14669 -2.49391 -2.52597
-1.22135 -1.19707 -1.01086 -0.997816 -0.550523 -0.612238 -0.612232 -0.550522 -0.287434 -0.345392
-0.307058 -0.253484 -0.18937 -0.228926 -0.210985 -0.175793 -0.143268 -0.168027 -0.155637 -0.133371
-0.103793 -0.120703 -0.110544 -0.0935122 -0.0916467 -0.0714977 -0.0449714 -0.0654214 -0.0548329 -0.0745456
-0.0319829 -0.00295935 0.0054737 0.00247847 0 0.701857 0.679354 0.593302 0.392592 0.489273
0.717648 0.86428 -1.38887 -1.08865 -1.00653 -1.21569 -1.01183 -0.888999 -0.762693 -0.821013
-0.661831 -0.645302 -0.543841 -0.54384 -0.661822 -0.309062 -0.3091 -0.291371 -0.291317 -0.26379
-0.226176 -0.251733 -0.217262 -0.193523 -0.164756 -0.186787 -0.159743 -0.13813 -0.092714 -0.114219
-0.138626 -0.152344 -0.104744 -0.0663209 -0.037683 -0.0201413 -0.00956835 0 0.532116 0.509824
0.426834 0.258798 0.0495735 0.245033 0.0156651 -0.381047 -0.16416 -0.262179 -0.754509 -0.614587
-0.500222 -0.690354 -0.883517 -0.886175 -0.624144 -0.621997 -0.351796 -0.401561 -0.415995 -0.352055
-0.269362 -0.306048 -0.290292 -0.287797 -0.204437 -0.232799 -0.226048 -0.172676 -0.879226 -0.621997
-0.782298 -0.872427 -0.543485 -0.61318 -0.710098 -0.462627 -0.534604 -0.446169 -0.359851 -0.20443
-0.232738 -0.175645 -0.17266 -0.126514 -0.0874906 -0.0562278 -0.0326117 -0.0154243 0 0.437947
0.417219 0.340366 0.195158 -0.00124862 -0.214575 -0.397476 -0.507902 -0.522837 -0.288929 -0.236581
-0.235875 -0.183294 -0.532747 -0.495448 -0.430185 -0.360129 -0.294927 -0.183252 -0.137111 -0.0977692
-0.0654361 -0.0394769 -0.0192463 0 0.387834 0.407955 0.313113 0.175603 -0.00595738 -0.199815
-0.366402 -0.472011 -0.238211 0.387834 0.407955 0.313112 0.175603 -0.00595744 -0.199815 -0.366401
-0.47201 -0.50395 -0.478942 -0.424144 -0.359401 -0.296258 -0.238215 -0.18615 -0.140322 -0.101108
-0.0685662 -0.0418655 -0.0205413 -0.00557831 18.4908 18.6791 20.0976 20.163 88.4465 88.8549
86.7481 -17.6107 -16.6805 -19.2095 -20.1275 -0.265562 2.25626 1.25753 -2.11751 16.0795
14.8955 87.6391 83.2585 -2.37728 -2.47673 83.4398 -0.542586 -0.833027 -1.74356 -1.58254
2.88349 1.67165 -4.24223 -4.28146 -4.78319 -4.69541 -12.7731 -12.9324 -11.5839 -12.521
-14.9426 -13.9456 2.39576 3.44659 3.1761 2.16191 3.44273 2.92067 4.36383 4.24282
4.41769 4.56882 -27.6865 -27.4484 -23.4566 -23.4837 82.5257 83.0656 83.0355 4.48398
4.08731 4.10807 4.53142 -0.00485037 0.389212 3.67699 4.24872 4.37652 -3.81725 -3.81484
-0.441725 -0.297584 -0.394484 -0.54161 72.4356 68.4655 11.21 11.2139 11.2272 80.354
79.1885 71.9006 73.1746 44.7744 53.2515 56.353 57.6573 46.648 31.9947 36.6654
40.2239 34.7036 43.1016 50.1493 -27.8392 -23.9241 85.208 84.9222 6.16668 4.39339
4.52071 9.79653 -28.5418 -28.7595 -28.9883 -28.9335 -28.9182 -28.844 -35.7393 -33.2523
-35.0967 -40.9346 -33.2619 -30.4566 -28.7334 -28.9941 -17.6602 -15.3048 -16.1331 -18.3186
-28.66 -28.6378 -13.5894 -12.8612 -14.7689 41.4193 47.5115 45.7483 40.4662 -30.4432
-30.7922 -28.8693 -37.0258 -57.5331 -59.0948 -12.1685 7.93788 5.66238 8.93903 -42.7141
-52.2946 -50.5994 -41.8577 -47.4454 -35.8501 -43.7928 -50.7778 -2.4578 2.07481 9.99842
-2.73907 -2.02353 -3.04183 -3.68892 -15.3574 -14.4341 -12.5814 -13.1592 -35.9155 -39.4799
-32.974 -30.7034 -2.82652 12.2187 4.88571 19.7596 22.1749 22.156 20.4341 93.4691
92.4004 92.6023 90.5098 96.7051 95.3673 26.7711 23.9655 29.3793 32.504 34.2105
43.6396 30.2896 29.6433 40.6553 0.270075 -8.37198 -28.0354 -31.8101 64.7036 68.5148
71.0796 72.3556 67.4946 66.135 57.955 67.5846 82.4284 68.0033 -26.5019 -26.1535
-26.2007 -26.3214 -26.4009 -26.5932 -69.5147 -68.8139 -67.6378 -67.7533 92.2015 -26.2694
-25.4775 -25.9311 -29.9927 -29.931 -29.9501 -29.9893 80.3323 82.033 108.844 111.334
102.569 -27.0466 -24.6344 -24.8125 -27.2044 -19.7869 -18.9917 -2.65622 -7.62156 -61.9817
-65.5831 -82.4306 -75.4349 -70.164 -81.8789 -16.2529 -17.5171 -79.1825 -87.2084 19.6802
19.4195 17.0244 15.0839 16.2069 15.8001 15.8211 16.2482 91.3034 92.1714 91.5284
91.2151 90.0009 89.4292 87.7467 86.5904 88.7639 -41.2138 -41.5891 -41.3259 -11.586
-9.9462 -0.0288197 -1.10804 -0.327526 29.0545 32.8414 11.2571 12.8976 9.64812 13.6202
11.798 12.1041 14.1599 59.4336 68.9569 70.3519 113.257 118.485 129.122 123.926
104.23 109.535 81.2653 79.616 75.0932 76.5959 15.8421 15.2496 14.1895 15.8326
14.2581 14.9264 -26.44 -26.6937 -15.041 -15.2383 -14.0284 -13.5763 13.6217 -16.8986
-17.0634 -60.5431 -60.8645 -61.1684 -5.20748 -5.46511 -6.45831 -6.38414 -6.02068 -16.1193
-15.2945 -17.0526 91.5468 -42.0361 -42.4105 -41.146 -26.6597 -41.8531 -42.3344 -26.6578
-25.0553 -23.0367 -26.317 -35.6653 -35.8153 -35.7364 -27.4422 -26.3846 -26.9296 -26.948
-27.4478 -29.6996 -29.8023 -29.7072 -29.9947 -29.8434 -29.8423 -26.028 -26.3195 -27.375
-29.3369 -28.9022 -30.0327 -30.0031 -23.1817 -24.1974 -30.0453 -30.1118 -24.6206 -27.97
-5.07324 -7.19765 -4.79991 -3.74078 -26.5859 -27.0398 -19.7289 -19.8564 -21.3764 -8.98259
-8.03092 -5.50258 94.0179 84.5538 -29.4607 -29.4906 14.9639 -9.76237 -20.289 15.8543
5.55579 -5.12778 0.424458 -29.5115 -29.5055 -29.601 -29.6408 -28.363 -29.663 4.42529
6.78415 2.80527 0.196083 -8.2655 -3.10488 -2.44791 -1.56853 -6.19685 -23.6644 -22.1757
-26.4223 -4.89859 -11.757 -53.1541 -23.6632 -32.8442 -10.9649 -18.2652 -21.6811 -19.1565
-14.6891 -15.5499 -5.21965 -4.51415 -6.97077 -7.71147 6.61752 6.71788 8.05062 8.19188
18.394 15.6776 15.6247 6.02173 5.34426 6.47599 7.17851 11.9408 15.3253 12.9199
36.489 36.245 36.5087 23.6853 26.0606 29.4349 27.668 -1.03975 -1.83831 -1.27046
-1.1162 -1.77771 -2.21902 -1.77147 -3.11152 -4.07259 -4.04022 -3.73997 -2.8441 -10.4141
36.0125 17.7112 19.4358 19.6739 18.1724 38.4559 39.4635 17.6963 19.1583 29.893
30.3807 30.3142 37.439 77.5534 81.6797 93.5594 88.9906 138.802 127.144 113.249
121.247 130.217 -22.9059 -27.2182 -69.7398 -57.7559 -40.2086 -38.1502 -34.8689 -33.8737
-40.1768 -68.7076 -67.9715 -66.1093 -66.1099 -46.5961 -46.4667 -48.7034 -49.3709 -49.3393
-27.3483 -26.3179 -24.8587 -21.8206 -20.9858 -23.8713 -46.0389 7.02088 4.74947 3.45167
5.8643 -21.7261 -21.2954 -23.4445 -2.83463 -1.67812 57.8079 50.3455 53.4528 56.5231
14.4969 5.75658 28.1812 -42.4275 -47.5652 -29.5367 -29.5683 -44.1893 -21.8036 5.45176
3.29412 -8.91699 -10.0851 -9.00525 -8.00587 -30.5378 -35.7704 -25.9499 -9.7036 -10.9957
-31.1815 -40.0946 -57.0067 -63.7265 -32.8213 -40.2862 -42.1476 -41.8587 -36.9324 -33.5042
-18.6953 -18.013 -21.1268 1.47486 2.67349 1.34849 0.284884 -3.04685 -2.41114 -28.0332
-26.572 -19.9776 -13.2102 -14.2001 -2.10019 -0.999718 -2.1145 -3.22923 -3.73062 -2.64751
-4.91147 -5.88374 5.26445 5.21018 5.50496 5.58557 0.604671 57.9935 48.2604 41.7393
56.1739 41.3541 41.3491 45.0552 46.0396 6.34044 6.4532 6.4905 6.65465 6.42703
-27.754 -29.2974 -29.1646 -27.5929 -28.6403 -28.9527 -28.9859 -28.7827 -28.0449 -26.3583
-25.9828 -27.5761 -27.9578 48.4132 54.5672 27.2709 35.2355 33.0846 -1.93291 -1.18002
5.22369 5.28291 0.855014 1.4673 1.3114 0.662899 36.6894 28.568 27.2626 28.48
35.3812 -54.3609 -54.2928 -54.0793 43.1127 32.0626 41.9048 65.1353 62.2388 47.89
61.5801 60.8364 60.7742 47.047 45.7791 11.9747 1.17272 11.1732 37.1236 48.7743
63.3158 64.344 106.626 115.721 97.752 42.7871 46.5984 47.2733 46.5368 64.3582
65.343 6.8752 5.60907 5.7046 5.21169 3.01991 8.35488 9.8754 9.84969 9.16487
7.39124 6.28527 -29.643 -28.4022 -29.0936 -29.9441 -27.5413 -27.5818 -27.592 -27.5721
6.68013 9.31594 -54.3142 -54.2858 -5.76185 -3.70008 3.06333 7.172 -31.1689 -31.2503
-30.8016 -28.0562 -37.6959 -39.3769 -39.7128 -20.4989 -23.4565 -25.5773 -25.7862 -36.6369
-35.1712 -31.5478 -31.9861 -31.9405 -33.5015 -33.3517 -33.9602 -34.203 -16.5655 -21.693
-17.1128 -13.0649 -33.6251 -34.365 -35.1735 -34.4845 -48.134 -45.9078 -44.1813 -45.9535
-24.9397 -24.5648 -23.0185 -23.2495 -23.3107 -24.4471 -24.8232 -33.6222 -33.0093 -33.7933
-29.0915 -28.1312 -29.5392 -30.0959 57.1297 57.5308 65.1229 65.163 63.7328 68.6689
71.2722 40.8897 39.9897 65.843 -30.0777 -29.7663 -29.9572 -30.0283 -54.8979 -54.9877
-50.1661 -50.1147 -50.0443 -8.37013 -9.89991 -13.4972 -11.2943 -31.3893 -30.9559 -30.5703
-26.2154 -31.3392 -30.5811 -26.4806 -29.6042 -28.4376 -28.258 -25.29 -25.8264 -24.945
-17.3835 -17.4052 -16.7231 -14.5236 -32.9375 -53.3363 -53.7273 -3.5832 -6.3753 -13.8546
-13.9451 42.106 -18.5273 -21.6704 -21.1275 -17.9483 -31.6971 -35.0557 -32.0425 -30.9825
-38.0143 -21.6047 -75.7034 -38.7519 -33.3388 -33.4451 -39.3112 18.0311 22.2897 27.9836
23.6104 22.6625 27.8672 38.5414 42.9211 46.957 33.9526 33.4646 5.47429 9.66
8.4307 4.17993 -32.7728 -31.0189 -28.6402 -26.5237 -32.4217 70.8727 49.2654 39.435
46.5288 56.9101 92.3798 97.7638 -46.6954 -45.4035 -46.6845 -27.1784 -19.7232 -20.9801
-22.7614 25.0686 21.4335 21.0642 25.4085 -26.12 -26.5831 -28.04 122.939 126.349
115.619 110.769 5.30036 4.9206 12.4281 3.79833 2.29961 5.34115 4.73774 4.50783
5.27446 6.5674 123.769 127.788 4.30414 5.90257 141.313 149.433 159.535 152.938
-4.22796 -7.2147 -27.6862 -27.7521 -27.735 -67.3207 -66.465 -66.2248 -64.2592 -64.4329
-45.371 -48.0495 -32.8249 36.8554 -43.7793 -42.8724 61.3237 61.725 136.088 135.229
150.578 161.66 143.543 0.567168 1.57515 -27.3219 -27.5824 -27.5521 -11.6482 -10.3119
-12.2032 -13.6926 -11.2796 -17.9012 -21.1579 -19.0101 -26.0986 -26.5698 -15.2718 -13.0099
-52.0862 -53.5428 -53.6049 -51.1804 -49.1137 -53.2853 -55.8721 -66.9585 -63.0485 -50.0273
-51.2433 -49.3645 -51.0346 -55.0169 -59.2884 -58.8008 -29.9585 -29.5922 -29.5803 -39.6481
-45.5409 -25.1966 -29.2623 -23.6994 -30.6046 -37.0289 -38.9295 4.53132 6.69273 7.50518
6.0086 -9.25327 -12.4271 -21.656 -20.5779 4.5212 3.64147 -17.0224 -4.35728 35.1426
32.1334 23.1552 29.3103 55.4502 43.5053 50.304 51.1788 36.4796 57.142 4.02115
6.37411 0.838516 3.68617 2.69975 -0.470176 -2.87572 7.30468 7.84333 8.31992 3.36732
-27.1769 -25.2373 -29.1365 -28.3066 -28.3359 -25.13 -28.611 -29.284 -28.5861 -35.2146
-32.8002 -28.0826 -28.8339 -33.3943 -38.7632 -15.3718 -18.0356 -25.7616 -28.1369 -13.9067
-5.30087 0.941826 0.403624 -1.42619 8.50089 7.9234 -4.61142 6.29057 0.496224 8.9438
2.03937 -5.07402 22.7655 18.1459 17.5079 25.1201 75.3306 79.5922 84.9233 79.0653
72.9395 75.4087 77.1059 75.6376 -18.8202 -28.0994 -28.4877 -21.2449 6.36169 7.65188
3.21898 4.93649 2.66696 5.77382 3.17439 -28.0149 -15.6169 12.1613 12.5849 15.9145
16.2483 -26.6109 -27.599 -27.5157 -27.5347 -27.4768 -14.0454 -16.0139 -15.5735 -14.073
6.44128 12.0581 -16.12 -17.8522 -15.5446 -15.9193 21.9676 18.2746 40.1106 39.2146
39.8038 2.06967 0.712904 -0.600384 -0.245096 -54.9657 -55.1539 -55.053 125.228 157.826
171.848 144.229 -25.4137 -18.4746 -37.0036 91.6605 120.504 103.563 104.109 90.6774
-0.610623 -1.08346 -1.36371 -0.780531 67.5506 -10.9829 -10.0666 -6.41082 -1.51161 -1.52537
-31.0174 -30.5141 -15.7875 -16.0616 -19.92 -8.72103 -9.36964 -9.13031 -8.26603 -8.55835
-8.3372 -8.24376 -9.12253 -34.6128 -33.9315 -34.1226 -35.2525 -35.9544 -37.1676 -38.0388
-36.3809 -34.8126 -35.5651 -25.8799 -39.4551 -39.4275 -38.748 -27.5104 -27.5827 -27.4759
-39.985 -40.1791 -33.7344 -28.4243 -28.4581 -28.7547 -28.7488 -38.033 -28.9624 -28.8629
-28.6175 -28.5178 -29.4381 -29.2356 -31.6828 -30.6371 -30.8613 -30.8063 -32.2338 -33.471
-31.9991 -29.8215 -29.5399 -29.9056 -30.0372 -33.4031 -33.701 -29.8634 -30.0432 -30.9753
-30.4421 -30.0942 -29.9441 -29.4992 -33.1446 -32.3253 -25.7753 -20.3587 -45.7243 -45.5664
-45.8153 -45.7708 -29.7758 -29.9289 -29.9577 -29.8615 -29.3013 -29.98 -29.8841 -29.9037
-49.6791 -48.9407 -47.3011 -33.624 -34.2031 -29.4467 -28.2638 -28.9009 -43.4625 -43.3147
-45.0348 -16.6616 -18.7426 -21.7829 -18.4276 -14.9141 -16.2516 -16.5033 -19.2116 -14.7774
-12.4196 -15.4133 -16.2303 -19.6103 -13.7413 -23.112 -29.5359 -25.1718 46.3072 -2.71666
4.37085 -5.78901 115.209 116.344 71.616 67.1047 -27.9927 -33.0789 -34.1082 -25.4032
-22.9495 -20.5269 -24.0923 -27.7272 -27.4628 -27.5903 -29.6015 -29.8035 -27.5244 -30.0682
-29.5319 -27.1605 -30.0065 -15.7373 -40.4974 -42.0222 32.811 42.4732 38.3512 25.0233
15.1834 -102.051 -51.9609 87.0833 -8.02339 -5.63494 -0.53925 62.2025 -2.74755 -30.4442
-10.0381 -30.3006 -30.56 -27.9805 -29.3292 -29.5497 -29.6833 -29.492 -26.3763 -26.5413
-28.911 -29.1324 -49.8397 -32.0862 -33.2915 -43.305 -27.0561 -27.2661 -15.5857 -18.175
-14.4489 -31.102 -15.6149 -51.5655 -55.015 -50.7481 -51.2052 -20.5392 -33.4454 -31.191
0.841826 2.14225 -14.5383 -15.3297 -0.277334 -4.20948 -4.34219 -3.44555 -4.37781 -4.9722
-8.47919 -6.11193 -3.21444 0.663148 53.299 38.02 39.0269 55.898 13.1747 12.7697
11.8287 3.39138 75.6022 69.1384 41.6525 39.314 38.3227 45.173 42.5381 47.8811
51.9126 29.1985 28.2064 100.754 101.574 100.428 97.1503 -16.3578 -12.5879 -12.6451
-16.4607 -2.997 -3.34099 -2.50511 -13.6324 -15.2383 106.771 61.5604 57.0891 65.2012
-34.622 -5.44263 -12.809 -12.3126 -5.15148 -20.5755 -17.0797 -21.5879 -21.5482 68.5182
67.6691 69.4147 70.0378 69.4124 56.2918 59.6558 65.9492 8.08709 7.97519 8.02654
25.5251 20.1679 18.5716 24.8099 75.8963 68.0672 69.8529 53.4758 53.3428 57.128
57.6714 49.4657 56.3595 39.4541 38.7863 45.3054 -31.8206 -31.5244 -21.5309 -24.4283
-23.2361 78.7051 88.2687 85.6281 85.6442 70.1331 74.4635 10.2859 10.4835 5.51563
5.80628 9.64609 2.57858 0.333494 2.41493 4.93477 4.73629 0.990125 -32.1061 -29.6818
-29.8461 -29.907 -29.6729 -29.5596 -29.1532 -29.367 -29.7248 16.8699 16.9158 10.0465
8.07442 -22.5586 -28.5921 -28.5984 -28.594 -28.5573 -28.7765 -28.7884 -28.4963 -35.1902
-33.2689 -33.3303 -34.5292 -25.6634 -1.10915 67.6916 53.7079 58.0688 65.5594 -33.3083
-33.3382 -33.6932 -33.5663 -33.6221 -34.8213 -28.5811 -28.5687 -28.5893 -50.9 -55.9341
-62.4959 -47.3895 20.629 -1.17819 2.03922 -27.7717 -28.987 -31.0316 -29.2034 -29.2171
-29.4499 -29.5746 -28.6938 -61.7292 -70.7111 -53.1711 -53.5722 -22.3488 -17.9014 -14.8901
-18.8352 -10.7194 -7.48967 -29.3347 -29.4475 -22.4902 -19.6845 1.05346 -9.0316 -8.98969
-1.65533 10.9238 11.305 4.89679 1.97259 13.1128 11.1378 10.048 12.8235 76.7868
61.9692 56.0798 64.3401 69.0561 73.8254 94.6349 -7.25489 21.09 21.0282 22.6694
22.8706 24.8817 19.1797 17.0479 17.168 -25.0014 -27.0942 -41.3803 -41.6242 -40.4484
-36.4703 -36.3596 17.3269 25.5601 16.6579 11.0732 100.689 77.26 76.9889 98.7466
129.608 118.11 112.887 -24.5129 -24.425 -24.5539 8.7641 6.09707 11.0074 14.0354
117.634 127.923 154.126 107.565 122.191 -19.6656 -19.5634 -23.356 -23.5575 -16.8295
-20.806 -21.1096 -29.3201 -25.2686 -41.7408 2.58637 2.52544 -24.4016 -23.625 -17.7685
-23.6654 -18.3068 -11.7047 -8.72259 -16.537 -21.2728 12.9776 68.3758 88.6109 59.3666
65.3397 66.9167 63.2598 -6.88885 -4.95737 -6.16309 -7.58265 25.0306 35.091 79.8867
59.7653 41.7628 53.2017 74.4883 78.2972 80.6678 81.526 81.0304 -25.0034 8.96484
12.9595 10.0479 7.8289 9.95015 9.07546 7.98365 8.62238 -23.4669 -15.6882 14.2128
14.0571 13.77 14.0238 10.6396 14.4928 8.31009 11.7155 13.77 10.2909 2.95675
3.05636 0.328401 0.237695 18.5355 18.1529 18.5879 13.7168 14.7425 14.8194 14.2075
18.1175 16.6558 17.4534 -1.46162 28.2199 41.0659 39.2868 28.4778 -6.85103 -0.667538
-0.84645 -4.01291 -3.51115 -2.83731 -14.3989 -14.407 -12.603 34.2598 30.6381 45.4833
35.8961 -11.4163 -10.9502 -11.9007 -12.8181 -18.7197 -17.0786 -20.309 -20.2227 -13.6997
-13.1422 -17.0606 -18.6895 -15.8433 -13.5418 -18.2971 -20.1202 -13.2746 -16.5446 -7.82214
-6.63904 -7.25587 -10.323 15.5913 15.5415 48.3773 21.2588 66.9562 76.6783 71.0114
38.1761 59.3225 -43.1277 -43.942 -42.2028 -42.4599 -28.1411 -28.1472 -35.6208 -35.7563
-35.4048 -35.3116 -34.8258 -34.1494 -34.8407 -35.4093 -30.0535 -29.8396 -29.9833 -30.8823
-30.6656 -30.4888 -30.7757 -30.0123 -46.8661 -23.685 -23.9606 -23.382 -24.8553 -26.4389
-22.9968 -22.4204 -18.7067 -24.3064 -26.1157 -26.6802 -28.7056 -29.3518 -29.8225 99.0007
54.0011 32.3578 33.0131 36.7751 99.6923 100.503 75.25 -32.5704 -32.7837 -26.1415
-33.8891 18.018 17.0111 17.0193 16.0216 18.5366 26.2366 26.2279 26.4 26.3894
14.8088 13.8024 14.8564 17.0253 17.8278 15.8885 14.5796 15.5216 -40.9302 26.0451
-54.3605 -54.5698 -55.9694 -54.499 -53.4698 -53.6856 -55.2961 -53.8936 17.1455 40.5336
0.936186 -14.2994 24.5173 41.1952 -8.96529 -0.637723 10.3499 15.6791 84.954 -25.7238
-24.0818 -37.1719 -37.3751 -37.0789 -29.1937 -18.698 -18.8133 -18.3633 -15.1771 -14.9706
-10.2108 -10.3587 -5.18819 -6.1394 -3.18756 -3.37605 6.47562 2.64663 1.03707 3.22466
38.7707 35.1883 30.1826 34.8032 37.7807 41.9267 111.961 114.307 115.888 109.581
108.896 135.273 141.07 132.821 130.145 109.962 111.65 118.092 118.019 -27.8948
-27.4392 -27.4623 -27.8574 -28.1003 -50.5607 -60.3123 -47.0559 -14.9267 -16.8037 -6.47063
-3.9567 -7.67345 -9.73981 -5.10924 -7.76677 -10.434 -8.13902 27.143 27.1439 27.1278
26.8406 -27.3997 -3.53661 -4.10413 -1.204 -3.18512 0.384858 0.158453 -1.03748 -0.688888
59.8359 63.7364 23.5243 17.8979 33.1365 32.7729 44.7085 48.2884 54.8731 62.9456
70.1503 59.4133 69.5659 65.9551 54.0457 35.11 31.0917 51.7297 47.3776 43.8324
-36.3176 -36.696 -36.7201 -36.4234 -38.5409 -40.2804 -39.3689 -45.5678 -44.2768 -44.9759
-176.207 -219.77 -225.688 121.894 88.04 112.664 112.473 87.2824 55.8422 55.4782
56.573 51.3772 51.5547 53.1662 52.0083 66.2222 74.4049 81.1059 70.6764 107.895
86.0345 81.0879 99.3918 105.726 91.096 118.201 118.512 89.7818 113.853 114.884
9.77799 5.28855 4.31202 4.16597 3.93058 4.56598 3.62 2.74333 4.82248 5.0605
6.16868 7.0931 7.60221 6.42304 6.20104 5.26146 -28.532 -28.4271 -28.5172 -28.7452
-28.6669 -29.324 -28.9538 11.8344 11.1304 14.6429 15.011 -52.3174 -51.189 -52.7729
-55.3511 -55.6837 -55.1747 -53.4415 -52.8413 -52.4792 -52.7001 -29.9133 -30.0267 -30.0188
-35.328 -34.9315 -34.9039 -35.6258 -41.0877 -37.2725 -39.0632 -41.571 -37.1909 -33.8173
-34.6539 -34.261 -33.8827 -34.318 -34.8299 -28.6508 -28.7811 -28.5418 -32.7093 -31.6748
-20.8487 -22.249 -21.2998 -20.0363 116.05 129.4 83.0986 110.849 104.241 65.1786
71.0984 83.4618 74.3985 64.9675 59.6064 50.1072 47.1773 38.6473 36.7827 43.3997
47.6898 53.133 -28.5758 -54.4399 -54.108 -28.7816 -29.1851 -29.5474 -30.7814 -31.6747
-55.8237 -45.9033 -49.1602 -48.1246 -136.667 -159.169 -218.751 -136.604 -42.0325 -60.1234
-64.7952 -46.0747 15.9287 16.1131 -37.1924 -37.2563 -25.914 -30.0329 -18.0926 -24.1141
-20.7365 -5.60706 -2.53442 -6.96753 13.8343 5.03947 -9.16492 -0.0139081 9.22371 14.505
15.2904 23.3668 19.9441 21.3343 24.9637 15.7682 15.3049 48.7457 51.5834 30.1734
28.6087 43.2172 48.6855 44.1217 31.0876 24.562 23.4975 23.3536 28.2024 29.8711
-6.90305 -8.17228 -6.10118 -10.5172 -14.1849 -1.77792 0.0345646 -47.7781 -49.7332 -50.4862
-44.8331 -44.585 10.3634 7.26164 12.2849 13.5019 10.2237 8.29357 7.08481 5.57572
5.68055 25.7084 25.1989 25.5949 14.7969 15.7861 15.7878 7.23738 7.02825 8.70035
14.4587 12.0421 16.2965 16.7103 0.626947 2.85368 0.509668 -24.5296 -55.339 -55.3498
-55.387 -67.3595 -67.8881 -64.6345 -66.1321 -56.5574 -61.2495 -61.61 -61.5306 -60.571