# vtk DataFile Version 2.0
sampleSurface
ASCII
DATASET POLYDATA
POINTS 14144 float
-4 2.4359e-17 0.213991 -5 -7.03332e-17 0.24832 -5 -8.78968e-17 1.19622 -4 0
1.15978 -3 3.30872e-24 1.09917 -3 2.12034e-17 0.618363 -3 6.61744e-24 0.144377
1.00049 2.71051e-19 0.0377466 1.032 0 0.0376088 1.03198 -2.76472e-18 0.00937487 1.00051
0 0.00937499 5 2.37371e-18 0.0807757 5.0625 0 0.0807864 5.0625 -2.32186e-18
0.01875 5 -7.88861e-31 0.01875 6 -4.59957e-19 0.0809059 6.0625 0 0.0809118
6.0625 -1.44624e-18 0.01875 6 -1.97215e-31 0.01875 7 -9.10076e-19 0.0809817 7.0625
0 0.0809867 7.0625 -7.45877e-19 0.01875 7 0 0.01875 8 2.16089e-18
0.0810315 8 0 0.143317 8.125 0 0.152582 8.125 -3.0713e-18 0.0282186
8 -7.88861e-31 0.01875 9 -3.36839e-18 0.322117 9 -7.14776e-18 0.569424 9.5
-1.00974e-28 0.605111 9.5 1.54025e-18 0.112989 9 0 0.075 11 0
0.22013 10 -1.00974e-28 0.144966 10 -1.07672e-17 0.635459 10 0 1.12676
11 0 1.19261 12 0 0.268044 12 0 1.23454 13
0 0.290282 13 -5.04871e-29 1.254 14 -2.52435e-29 0.29776 14 0
1.26054 15 -9.61216e-18 1.26203 15 0 0.299458 -5 -1.05512e-16 2.15667
-4 0 2.11862 -3 0 2.06503 -3 -3.42204e-17 1.58106 -1.00144
3.38813e-21 1.00095 -1.00156 2.6834e-18 1.06317 -0.939104 0 1.06315 -0.939024 0
1.00083 0.00102175 -1.35525e-20 1.00018 0.00157824 -1.3146e-18 1.01503 0.0193806 -5.42101e-20 1.01315
0.0168153 0 1.00027 5 0 1.01287 5 -2.48715e-18 1.07512 5.0625
0 1.07524 5.0625 0 1.01299 6 0 1.01429 6 3.11075e-18
1.07657 6.0625 0 1.07664 6.0625 0 1.01435 7 0 1.01514
7 -1.05712e-18 1.07746 7.0625 0 1.07751 7.0625 0 1.01518 8
-4.76227e-19 1.07803 8 -1.97215e-31 1.14036 8.125 0 1.14821 8.125 -1.57772e-30
1.02371 8 -3.9443e-31 1.0157 9 9.89212e-18 1.312 9 -1.17997e-17 1.55979
9.5 -5.04871e-29 1.59144 9.5 0 1.09792 9 0 1.06435 10
-1.40371e-17 1.61778 10 -1.00974e-28 2.10872 11 0 2.1651 12 -5.04871e-29
2.20103 13 0 2.21771 14 2.52435e-29 2.22332 15 2.88049e-17 2.22459
-5 5.16988e-26 2.5257 -4.99992 -5.07475e-22 3.13073 -4.00007 0 3.09448 -3.00072
6.77626e-21 3.04721 -3.00013 -5.74204e-18 2.55367 -5 0 3.13073 1.00096 2.71051e-20
2.00453 1.00095 -5.55654e-18 2.06706 1.06354 0 2.06709 1.06354 -2.71051e-20 2.00457
4.0625 0 2.06715 4.05722 0 2.07057 4.0625 0 2.07058 5
-3.9443e-31 2.01012 5 2.08749e-18 2.07242 5.0625 0 2.07251 5.0625 0
2.0102 6 0 2.01137 6 -2.47753e-18 2.0737 6.0625 -9.86076e-32 2.07378
6.0625 0 2.01144 7 -1.2326e-32 2.01243 7 2.62598e-18 2.07479 7.0625
0 2.07485 7.0625 0 2.01249 8 1.04356e-18 2.08227 8 1.97215e-31
2.14458 8.125 0 2.14473 8.125 0 2.02011 8 0 2.01997
9 6.90882e-18 2.30391 9 -3.1382e-18 2.55156 9.5 -1.00974e-28 2.57778 9.5
0 2.08482 9 -2.52435e-29 2.05574 10 -1.30369e-17 2.59966 10 0
3.0906 11 0 3.13758 12 0 3.16753 13 0 3.18143
14 0 3.1861 15 2.34283e-17 3.18716 -5 0 3.13082 -5
-2.8246e-17 4.11557 -4.00039 0 4.08378 -3.0018 -5.42101e-20 4.04421 -3.00113 -5.96311e-18
3.54412 -2 0 3.5 -2 -5.16988e-26 3.28376 -2 0 3.5
1.25056 1.35525e-20 3.00462 1.15858 0 3.00379 1.14482 0 3.25366 1.25048
-1.35525e-20 3.25461 3 0 3 3 -1.28799e-17 3.25 3.25 0
3.25 3.25 0 3 4 0 3 4 -1.89592e-18 3.25
4.00002 0 3.25 4 1.29247e-26 3 5 3.23117e-27 3.00777 5
4.56496e-18 3.25741 5.25 0 3.25778 5.25 3.23117e-27 3.00815 6 8.07794e-28
3.00926 6 -8.18032e-18 3.25887 6.25 0 3.2592 6.25 0 3.00959
7 4.03897e-28 3.0105 7 -1.44313e-18 3.26012 7.25 0 3.26039 7.25
0 3.01077 8 0 3.01729 8 9.51297e-18 3.26675 8.25 -1.00974e-28
3.28251 8.25 0 3.03422 9 -1.13316e-17 3.54219 9.5 2.01948e-28 3.56373
9.5 0 3.07075 9 0 3.04688 10 1.44621e-17 3.58154 10
0 4.07248 11 0 4.11006 12 0 4.13402 13 0
4.14514 14 0 4.14888 15 -2.58351e-17 4.14973 -5 7.05274e-17 5.09312
-3.99993 0 5.08025 -3.00007 2.1684e-19 5.04778 -2.00009 1.35525e-20 5.00153 -2.00038
-3.91939e-17 4.50134 -2.00045 0 4.00114 -2.50021 -5.28549e-18 4.00124 2.00133 2.71051e-20
4.00354 2.001 2.18196e-17 4.50355 2.5 2.06795e-25 4.5 2.5 0 4
3 0 4 3 -3.80475e-17 4.5 3.5 1.03398e-25 4.5 3.5
0 4 4 -1.03398e-25 4 4 -4.06264e-17 4.5 4.5 0
4.5 4.5 -5.16988e-26 4.49997 4.00003 1.03398e-25 4 6 1.29247e-26 4.00805
6 0 4.00873 6.49942 -6.72084e-25 4.50825 6.5 0 4.50825 6.5
0 4.00867 7 0 4.00923 7 -1.07652e-17 4.5082 7.5 0
4.50825 7.5 0 4.00941 8 0 4.01411 8 8.79829e-18 4.51234
8.5 0 4.52411 8.5 0 4.0275 9.5 -4.03897e-28 4.05671 9
0 4.0375 9 -1.14067e-17 4.53281 9 0 5.04224 10 0
5.05436 11 -4.03897e-28 5.08255 12 0 5.10052 13 -1.00974e-28 5.10886
14 0 5.11166 15 -5.02169e-17 5.1123 -5 5.94956e-18 6.06208 -3.9997
-1.0842e-19 6.05349 -2.99997 -1.35525e-20 6.0012 -1.99997 0 6.00128 -0.999976 5.33156e-17
5.00167 -1.50007 -1.58565e-17 5.00158 -0.999953 0 6.00136 6.79777e-05 -7.72494e-18 5.00191
-0.49994 -3.70797e-17 5.00179 5.0325e-05 0 6.0014 1.00008 2.57769e-17 5.00203 0.500073
-1.10318e-17 5.00204 1.00007 0 6.0014 2.0004 -1.35525e-20 5.74227 1.69151 -1.35525e-20
5.00239 1.50013 -4.32868e-17 5.00186 2.00025 0 6.00134 2.99998 9.42159e-22 6
6.00005 5.29396e-23 5.00703 5.50018 2.11758e-22 5.00709 5.38228 2.11758e-22 5.00695 6.00006
0 5.03909 7 0 5.00703 6.5 -2.46811e-17 5.00709 6.96544 -7.41154e-22
6.00469 7.00005 -5.29396e-23 6.00469 8 2.81435e-24 5.02081 7.49917 1.22785e-25 5.00709
8.00001 -6.61744e-24 6.01366 8.99969 3.26672e-24 6.02817 2.00083 -2.71051e-20 5.00325 3
2.06795e-25 6 3 -1.58161e-18 5 2.5 0 5 4 0
6 4 -3.39991e-17 5 3.5 1.03398e-25 5 5.0014 0 5.00651
4.5 0 5 5 5.16988e-26 6 6.00046 0 6.00466 8
0 5.02048 7.5 0 5.00709 8.5 0 5.02072 9 3.23117e-27
6.02817 10 -1.61559e-27 6.03624 11 8.07794e-28 6.05503 12 -4.03897e-28 6.06701
13 0 6.07257 14 0 6.07444 15 3.70132e-17 6.07486 -5
-3.24312e-17 7.03104 -3.99982 0 7.02674 -2.99998 0 7.00061 -1.99998 6.77626e-21
7.00065 -0.999976 0 7.00068 2.48667e-05 6.77626e-21 7.0007 1.00003 -6.77626e-21 7.0007
2.00006 -6.77626e-21 7.00068 2.60139 0 7.00101 7.00005 0 6.16302 7.98805
3.30872e-24 7.00678 8 0 7.00683 8.99921 0 7.01409 3.00043 0
7.00122 4 0 7 5 0 7 6.00035 -6.77626e-21 7.00232
7.00003 0 7.00234 9 0 7.01409 10 0 7.01812 11
0 7.02752 12 0 7.03351 13 0 7.03629 14 0
7.03722 15 2.98328e-17 7.03743 -4 -7.90671e-21 8 -5 -1.84332e-21 7.99999
-3 6.79012e-22 7.99999 -2 8.81361e-22 7.99999 -1 -2.28726e-21 7.99999 7.32374e-09
8.87565e-22 7.99999 1 2.82544e-21 7.99998 2 2.41806e-21 7.99998 8 -1.70606e-24
7.99828 -4 0 8 -5 -5.16988e-26 8 -3 0 8
-2 -1.03398e-25 8 -1 0 8 6.95393e-09 0 8 1
0 8 2 0 8 3 -1.03398e-25 8 4 0
8 5 0 8 6 0 8 7 0 8
8 6.46235e-27 8 9 0 8 10 0 8 11
8.07794e-28 8 12 4.03897e-28 8 13 0 8 14 0
8 15 -5.04871e-29 8 -0.999964 1.05879e-22 0.01875 -0.999962 2.11758e-22 0.0792239
-0.937452 -2.11758e-22 0.0789879 -0.937452 -7.67624e-19 0.01875 -0.0102783 0 0.985301 -0.0157641
-6.77626e-21 0.985342 -0.0153844 0 0.990908 1.99923 1.13841e-18 0.0752478 1.99924 0
0.0183062 1.93651 -3.82181e-18 0.01719 1.93651 -1.35525e-20 0.072745 1.93761 -1.36881e-18 1.0004
2.00009 0 1.00025 2.00004 0 0.937788 1.93753 -2.71051e-20 0.937954 -0.93899
-3.38813e-21 0.938435 -1.00144 1.69407e-21 0.938476 0.000497998 -7.04731e-19 0.985218 -0.0147548 -6.77626e-21
1.00012 0.969069 -2.98156e-18 0.009375 0.969041 2.71051e-20 0.0378507 0.0157615 0 0.986027
-0.00102467 -2.20906e-18 1.93926 -0.000889311 0 2.00183 0.0617038 0 2.00198 0.0615898
0 1.93943 2.00014 3.97089e-18 1.06267 1.93771 0 1.06275 2 0
1.99999 2 -1.05879e-22 1.93749 1.9375 0 1.93749 1.9375 1.8036e-18 1.99999
1.00094 -4.03865e-18 1.94198 0.9383 0 1.94194 0.93837 1.35525e-20 2.00449 1.06352
0 1.94204 2.06193 -1.35525e-20 0.0765379 2.06193 -4.68917e-18 0.0186528 3 -1.81039e-18
0.0799561 3 1.32349e-23 0.01875 2.9375 1.22555e-18 0.01875 2.9375 0 0.079892
2.06256 -6.77626e-21 1.00015 2.06253 -6.77626e-21 0.937681 2.9375 -2.42535e-18 1.00249 3
0 1.00322 3 -6.61744e-24 0.941243 2.9375 0 0.940625 0.50047 6.77626e-21
0.027037 0.50044 -6.77626e-21 0.00937499 0.469159 0 0.00937489 0.469163 0 0.011084
-0.0309658 0 1.00178 -0.0288823 0 1.00037 -0.0311024 1.69407e-21 1.0004 -1
2.65061e-18 1.9375 -1 0 2 -0.9375 -8.27181e-25 2 -0.9375 0
1.9375 -0.0635166 5.74627e-18 2.00167 -0.0635912 0 1.93911 2.06259 0 1.06261
3 -3.76144e-18 1.06544 2.93751 -1.32349e-23 1.06468 2.0625 0 2 2.0625
5.29396e-23 1.93749 3 0 2 3 0 1.9375 2.9375 2.06795e-25
1.9375 2.9375 -5.82667e-18 2 -0.0282619 0 1.029 0.00353532 0 1.02858
0.000751005 5.29396e-23 1.43704 0.00111654 0 1.43671 0.000760055 0 1.43671 0.000285858
2.71051e-20 0.498141 0.000156034 0 0.484128 -0.0155977 0 0.48402 -0.0152721 7.86047e-19
0.496509 -0.501601 -3.38813e-21 0.500645 -0.439154 -6.77626e-21 0.500755 -0.439077 -1.35525e-20 0.469314
-0.439023 1.35525e-20 0.437969 -0.501413 1.86347e-18 0.43787 -0.501826 0 1.00057 -0.439211
0 1.00054 -0.439163 -3.38813e-21 0.937938 -0.501777 3.66935e-18 0.937998 -0.501723 1.69407e-21
0.563398 -0.439157 -3.38813e-21 0.563487 0.500489 -3.38813e-21 0.0380538 0.469222 6.77626e-21 0.038325
0.0160838 -1.6263e-18 0.498552 0.0160288 5.42101e-20 0.483976 0.486228 0 0.487123 0.491214
-1.0842e-19 0.502479 0.492708 5.42101e-20 0.504765 0.50055 0 0.496218 0.507957 0
0.037948 1.00164 0 0.502496 1.00002 -1.0842e-19 0.486158 0.981588 -5.42101e-20 0.484933
0.982133 1.0842e-19 0.488709 0.988978 0 0.498108 0.500602 0 0.984593 0.500842
1.35525e-20 0.98278 0.493365 -1.35525e-20 0.983045 0.510209 0 0.999714 0.515104 -5.42101e-20
0.998796 0.51601 1.35525e-20 0.981869 1.01493 0 0.501977 1.01456 0 0.487268
1.93852 7.96889e-18 0.50049 2.00137 -1.35525e-20 0.500497 2.00112 -1.35525e-20 0.437781 1.93848
0 0.437755 1.00241 1.0842e-18 0.515574 1.01421 5.42101e-20 0.514355 1.967 1.69407e-21
0.563175 2.00134 0 0.549347 1.93851 0 0.563152 -0.499479 1.21973e-19 0.0738711
-0.43682 -1.69407e-21 0.0700973 -0.436806 -1.79793e-18 0.0140688 -0.499477 2.11758e-22 0.0169442 0.531691
2.24972e-18 0.009375 0.531738 0 0.0376102 0.982897 1.0842e-19 0.495945 0.485506 0
0.983329 0.485307 -8.13152e-19 1.0033 0.498394 0 1.00212 2.00133 -3.38813e-21 0.563203
-0.00096927 0 1.5006 0.0614961 0 1.50042 0.061972 0 1.43772 0.500021
-2.71051e-20 1.50241 0.499988 0 1.47142 0.46837 0 1.47148 0.468409 -3.52366e-19
1.50251 0.504906 0 1.01011 0.511229 -1.0842e-19 1.01789 0.531565 0 1.50217
[...]
POINT_DATA 14144
FIELD attributes 1
U 3 14144 float
19.9818 0.000387171 0.00489679 20 0 0 20 0 0 19.9859 0.000373936
0.0147638 19.949 0.000834856 0.0381523 19.9324 0.000851435 0.024543 19.9346 0.000810783 0.00940019
18.9633 0.258752 0.534822 18.4896 0.301299 0.536321 18.6785 0.36627 0.166632 19.1553
0.330511 0.164588 11.2579 -1.79795 -0.818276 11.3321 -1.77061 -0.80978 11.1689 -2.05901
-0.352394 11.0752 -2.06346 -0.356017 12.285 -1.31083 -0.71088 12.3422 -1.27981 -0.705861
12.3053 -1.75623 -0.302017 12.2484 -1.78315 -0.304541 13.1354 -0.851558 -0.635595 13.1849
-0.826042 -0.631183 13.0877 -1.29407 -0.264943 13.0435 -1.32298 -0.267109 13.8674 -0.502049
-0.581265 14.4177 -0.0072304 -0.889894 14.5788 0.0527614 -0.863463 13.8495 -0.66605 -0.35756
13.7195 -0.85322 -0.264475 16.1511 0.248803 -0.790799 17.4971 -0.0570816 -0.715994 17.5835
-0.050304 -0.42191 15.5662 0.0857139 -0.327188 14.8473 -0.0556542 -0.439449 18.2941 0.0169807
-0.0866008 16.4574 0.0830321 -0.270591 17.926 -0.0475897 -0.379422 19.3713 -0.0938241 -0.235882
19.5155 -0.0154512 -0.082396 18.4024 0.010392 -0.0701459 19.561 -0.0157942 -0.0597644 18.4675
0.00810981 -0.0590567 19.59 -0.0157918 -0.0462639 18.5014 0.00731453 -0.0532244 19.6029 -0.0157579
-0.0408033 19.6088 -0.0156862 -0.0388141 18.4808 0.00913145 -0.0499809 20 0 0
19.9933 0.0003504 0.021384 19.9766 0.000803625 0.0525835 19.9603 0.000872807 0.052914 19.394
0.00315432 0.34359 19.4215 0.00381211 0.365691 19.3709 0.00403731 0.397478 19.3294 0.00337347
0.379519 13.1546 0.381554 8.22042 13.8342 0.336444 7.94413 13.5865 0.41441 8.72128
12.8351 0.471469 9.17774 18.6996 -0.350958 -1.29756 19.1595 -0.112963 -1.11185 19.1665
-0.109987 -1.09443 18.7144 -0.344262 -1.27669 18.8826 -0.267221 -1.03653 19.2402 -0.0780826
-0.89467 19.2438 -0.0765009 -0.88447 18.8912 -0.263119 -1.02434 18.9996 -0.214717 -0.877595
19.2893 -0.0594798 -0.762409 19.2921 -0.0586237 -0.756009 19.0059 -0.21206 -0.869934 19.3265
-0.0609561 -0.679282 19.5647 0.0238223 -0.568584 19.5468 0.00614388 -0.535326 19.0573 -0.182954
-0.711818 19.0733 -0.192406 -0.764963 19.8183 0.02273 -0.283406 20.0431 0.0294052 -0.149873
19.9694 0.0164089 -0.136595 19.2763 -0.137185 -0.282345 19.188 -0.164831 -0.437814 19.9825
0.012284 -0.120468 20.0682 0.0102513 -0.0524286 20.0475 0.00486575 -0.0301095 20.0501 0.00406514
-0.0175038 20.0523 0.00392248 -0.0117667 20.0533 0.00388247 -0.0103538 20.0536 0.00392047 -0.00995429
20 0 0 20 2.53636e-08 1.74217e-06 19.999 0.00030184 0.0207349 19.9967
0.000688118 0.0473402 19.988 0.000802725 0.0550497 20 0 0 20.6507 0.0402059
0.0881158 20.5946 0.0343445 0.0976712 20.588 0.0352651 0.0475415 20.6415 0.0413743 0.0308841
20.076 0.0242991 -0.158077 20.0761 0.024167 -0.157796 20.0761 0.0241499 -0.157462 20.0758
0.0235737 -0.121229 20.0758 0.0213313 -0.113365 20.076 0.0211389 -0.11126 20.0761 0.0233534
-0.118988 20.081 0.0202253 -0.0944026 20.08 0.0184351 -0.0880769 20.0803 0.0182536 -0.0869723
20.0813 0.0200182 -0.0932358 20.0849 0.0171285 -0.0807969 20.0834 0.0157492 -0.0751659 20.0835
0.0155895 -0.074628 20.0851 0.0169451 -0.0802361 20.0842 0.0135696 -0.0684885 20.0828 0.012605
-0.0637673 20.0828 0.0124819 -0.0633465 20.0861 0.0143991 -0.0734391 20.086 0.0145923 -0.0739179
20.0782 0.0102653 -0.0504952 20.0751 0.00860843 -0.0393274 20.0737 0.00848854 -0.0372278 20.081
0.0119359 -0.0593749 20.0838 0.0128232 -0.0657458 20.0723 0.00800267 -0.0327929 20.0662 0.00612038
-0.0211816 20.0628 0.00515685 -0.0135174 20.0615 0.00513507 -0.00893114 20.0613 0.0052476 -0.00666377
20.0621 0.00535832 -0.00585898 20.0626 0.00539154 -0.00553246 20 0 0 20
0 0 20.0015 0.00024297 0.016277 20.0057 0.000532748 0.0353076 20.0026 0.000633162
0.0436133 20.0094 0.00110498 0.0729506 20.0041 0.00119574 0.0809516 20.0094 0.00110498 0.0729505
20.2231 0.00809636 0.0400224 20.222 0.00791335 0.0541307 20.1854 0.00613908 0.0511333 20.187
0.00630079 0.039522 20.1289 0.00919405 -0.0782107 20.1227 0.00738116 -0.0584068 20.1134 0.00741836
-0.059376 20.1178 0.00920688 -0.0774073 20.0955 0.0091324 -0.0678568 20.0937 0.00743164 -0.055016
20.0937 0.00743163 -0.0550158 20.0955 0.0091324 -0.0678568 20.0821 0.00881562 -0.0525918 20.0803
0.00725636 -0.0443872 20.0783 0.00719323 -0.0419528 20.0803 0.00871412 -0.0493904 20.077 0.00835378
-0.0415466 20.0744 0.00695679 -0.0356753 20.0735 0.00686578 -0.0339613 20.0762 0.00821816 -0.0394769
20.0745 0.00780004 -0.0346226 20.0713 0.00657909 -0.0297867 20.0706 0.00648124 -0.0286584 20.074
0.00765826 -0.0333512 20.0722 0.00723525 -0.0300305 20.0687 0.00618001 -0.0256482 20.068 0.0060633
-0.0246434 20.0715 0.00710622 -0.0289674 20.0623 0.00504594 -0.0191858 20.061 0.00497927 -0.0177877
20.0679 0.00653751 -0.0242587 20.0694 0.00672342 -0.0260769 20.0597 0.00481703 -0.0162354 20.0524
0.00364415 -0.0121453 20.0501 0.00346823 -0.00965321 20.0484 0.00329967 -0.00738681 20.0478 0.00314287
-0.00556051 20.0478 0.0030419 -0.00447606 20.0479 0.00300469 -0.00405118 20 0 0
20.0021 0.000193926 0.0111596 20.0073 0.000412202 0.0229761 20.0179 0.000683685 0.0353613 20.0188
0.000807504 0.045687 20.0152 0.000931184 0.0575835 20.0087 0.000735711 0.0482159 20.117 0.0038774
-0.000432853 20.0952 0.00287123 0.00455511 20.0916 0.00303697 -0.00607755 20.1091 0.00408579 -0.0151212
20.0995 0.00422632 -0.0238335 20.086 0.00315714 -0.0130933 20.08 0.00324655 -0.0172648 20.0904
0.00432255 -0.0280774 20.0827 0.00437335 -0.0292277 20.0744 0.00330387 -0.0191791 20.0694 0.00333257
-0.0197689 20.0694 0.00333263 -0.0197693 20.0827 0.00437335 -0.0292277 20.0651 0.00428077 -0.0235079
20.0651 0.00427943 -0.0235 20.0568 0.00325628 -0.0166139 20.0568 0.00325623 -0.0166127 20.0628
0.00421552 -0.0217539 20.0609 0.00414205 -0.0201541 20.0548 0.00321152 -0.0155255 20.0531 0.00316198
-0.0144659 20.0593 0.00406868 -0.0187212 20.0577 0.00398143 -0.0173532 20.0515 0.0031033 -0.0133956
20.05 0.00305785 -0.0123212 20.0563 0.00390888 -0.0160648 20.0548 0.00390122 -0.0141853 20.0552
0.00386151 -0.0149776 20.0487 0.00299086 -0.0113189 20.0435 0.00241006 -0.00884795 20.0412 0.00234217
-0.00771118 20.0391 0.00227289 -0.00623246 20.0375 0.00221471 -0.00471797 20.0365 0.00219151 -0.00349281
20.0359 0.00220303 -0.0028314 20.0355 0.00221503 -0.00260578 20 0 0 20.002
0.000158298 0.00681693 20.0067 0.000330442 0.0137736 20.0152 0.000524073 0.0195658 20.0348 0.00102651
0.0430925 20.026 0.000867227 0.0423222 20.0271 0.000745421 0.0224063 20.0557 0.00143619 0.0405655
20.0461 0.00126071 0.0457061 20.0403 0.000989049 0.0208043 20.0735 0.00186912 0.0257586 20.0678
0.0017128 0.0364404 20.0515 0.00123959 0.0142071 20.063 0.00166232 0.00567325 20.0802 0.00217163
0.0129193 20.0807 0.0021358 0.0168265 20.0573 0.0014635 0.00534684 20.0573 0.00162395 -0.00153839
20.0541 0.00262915 -0.0132765 20.0575 0.00273295 -0.0142621 20.058 0.00271167 -0.0141378 20.0538
0.00260219 -0.01309 20.05 0.00257972 -0.0120394 20.0526 0.00269282 -0.0131676 20.0419 0.0017817
-0.00714573 20.0418 0.00178139 -0.0071339 20.0467 0.00250454 -0.0105424 20.049 0.0026256 -0.0116571
20.0387 0.00175443 -0.00644854 20.036 0.00172337 -0.00565348 20.0793 0.00222924 0.00660445 20.0573
0.00162395 -0.00153854 20.0749 0.00246516 -0.00641357 20.0801 0.00245146 -0.00142886 20.0539 0.00172225
-0.00537743 20.067 0.00259851 -0.0122037 20.0725 0.00263627 -0.0108536 20.0596 0.0026429 -0.0137362
20.064 0.00272554 -0.0141181 20.0495 0.00177545 -0.00713262 20.0454 0.00179022 -0.0074756 20.0467
0.00250479 -0.0105438 20.049 0.00262568 -0.0116565 20.0457 0.00253856 -0.00993699 20.036 0.00172336
-0.00565323 20.0336 0.0016937 -0.00480584 20.0315 0.00166073 -0.00395105 20.0299 0.00163287 -0.00313905
20.0287 0.00161443 -0.00251902 20.0277 0.0015994 -0.00217182 20.0271 0.00158993 -0.0020179 20
0 0 20.0018 0.0001364 0.00323064 20.0059 0.000280532 0.00635908 20.0131 0.000436822
0.00887438 20.0226 0.000606869 0.0101962 20.0329 0.000790587 0.00958068 20.0418 0.000976671 0.00684328
20.0471 0.0011494 0.00290138 20.0478 0.00122507 0.000952992 20.0411 0.00172576 -0.00652363 20.0341
0.0014189 -0.00302346 20.0341 0.00141876 -0.00302025 20.0315 0.00140037 -0.00268633 20.0482 0.00127526
-0.000339949 20.0465 0.00135286 -0.00217845 20.0436 0.00140477 -0.00311258 20.0402 0.00142801 -0.00337227
20.037 0.00143082 -0.00328855 20.0315 0.00140035 -0.00268606 20.0291 0.00137971 -0.00232429 20.0272
0.00135864 -0.00195608 20.0255 0.00133967 -0.00160136 20.0243 0.00132509 -0.00131517 20.0231 0.0013154
-0.00113375 20.0223 0.00131041 -0.00104968 20.0017 0.00012935 2.97254e-09 20.0003 3.15526e-05 0
20.0056 0.000264268 7.66967e-08 20.0124 0.000408671 1.01144e-07 20.0212 0.000563086 1.34197e-07 20.0306
0.000729235 1.42522e-07 20.0388 0.000896555 1.08938e-07 20.044 0.00105802 5.79198e-08 20.0326 0.00130877
-5.2398e-06 20.0017 0.00012935 0 20.0003 3.15528e-05 0 20.0056 0.000264268 0
20.0124 0.000408671 0 20.0212 0.000563085 0 20.0306 0.000729234 0 20.0388
0.000896554 0 20.044 0.00105802 0 20.0454 0.0011732 0 20.0441 0.00123875
0 20.0416 0.00128785 0 20.0385 0.00131175 0 20.0355 0.00131682 0
20.0326 0.00130858 0 20.03 0.0012939 0 20.0277 0.00127653 0 20.0258
0.00125955 0 20.0242 0.00124424 0 20.0229 0.00123249 0 20.0216 0.00122419
0 20.0208 0.00121961 -0.000312745 19.2148 -0.00517654 0.00464674 19.1679 -0.00518217 0.0187765
19.0955 -0.00693074 0.0207514 19.1391 -0.00709841 0.00599087 12.6631 0.380711 8.06721 12.793
0.352209 7.79158 13.0132 0.339671 7.69094 1.63795 1.06162 0.348012 8.99751 1.53375
0.500081 9.73206 1.55553 0.638506 2.00882 1.24309 0.718857 11.476 -0.170592 -3.46364
12.6294 -0.198653 -3.89556 7.76005 -0.919757 -1.7987 6.30842 -1.18911 -0.881691 19.2906
0.00270462 0.35913 19.3506 0.00256001 0.329975 12.4086 0.437309 8.6081 13.3781 0.318636
7.5241 19.5229 0.301109 0.164499 19.3227 0.22607 0.539091 11.9428 0.549624 9.66824
20.1081 0.0160739 0.78772 20.1236 0.0145668 0.705907 20.1683 0.0158074 0.717196 20.159
0.0175496 0.804148 15.9807 -0.379936 -4.41043 15.6148 -0.412899 -4.46726 20.2908 0.0355461
-0.365763 20.2935 0.0402752 -0.416966 20.3182 0.0409437 -0.416514 20.3132 0.0360866 -0.36354
20.7147 0.0476324 0.0733679 20.7223 0.0458067 0.142415 20.6557 0.038801 0.148004 20.7021
0.0491115 0.00789571 1.45712 0.922755 0.0791887 8.512 1.5307 0.393803 5.59054 -1.11803
-1.41622 4.98068 0.0338353 -0.569504 4.74114 0.180725 -0.537734 5.20207 -1.00626 -1.4029
13.6142 -0.284955 -4.13265 9.17923 -0.76243 -2.51245 17.3198 -0.798718 -2.91292 17.4137
-0.781171 -2.81569 16.3801 -1.05203 -2.94035 16.2683 -1.05898 -3.03251 20.2345 0.0085409
0.801666 20.5272 0.092793 0.32994 20.2851 0.0479361 0.355916 20.2539 0.0395654 0.404867
13.8376 0.259969 6.77885 13.732 0.269505 6.90205 13.7875 0.26183 6.80432 19.8648
0.00408775 0.328378 19.8833 0.00393517 0.312575 19.8825 0.00421646 0.331892 19.8626 0.00434507
0.345841 20.083 0.0133867 0.689368 20.0625 0.0146879 0.765341 16.2873 -0.386489 -4.30911
18.3108 -0.372277 -2.44895 18.2313 -0.389741 -2.54055 20.2698 0.0350751 -0.365901 20.2705
0.0397043 -0.415173 20.1045 0.0311547 -0.269351 20.099 0.0351004 -0.293302 20.1036 0.0353929
-0.301987 20.1093 0.0314013 -0.276924 14.8271 0.221274 6.27549 14.4788 0.297948 7.45353
19.4266 0.0488387 2.22543 19.4261 0.048947 2.22835 19.4256 0.0488834 2.22701 0
0 0 1.79131 1.22482 -0.442772 -0.187332 0.487936 -0.523702 0 0
0 17.7286 -0.0405815 0.387686 17.2271 -0.0627806 0.522407 17.0583 -0.07795 0.524637
16.9751 -0.0892834 0.476052 17.6125 -0.0548285 0.32091 18.4236 0.0128985 0.922645 18.1556
0.0175437 1.09612 17.9596 0.016211 1.005 18.277 0.0114092 0.852136 17.8286 -0.0276483
0.426961 17.4187 -0.0403073 0.540398 20.0525 -0.0436314 1.0952 19.7579 -0.0930798 1.18353
0.163693 0.0639376 -0.0195281 3.98902 1.74912 -0.478893 0.279325 -0.0151734 -0.0920466 0
0 0 0 0 0 0.523568 0.50448 -0.46311 20.1073 -0.0344329
1.07776 0 0 0 0.693367 2.41659 0.316237 0.507639 2.20152 0.249039
0.338316 1.46721 0.165972 0 0 0 2.61407 1.37502 0.709535 2.88972
1.52073 0.778817 2.99452 1.68258 0.264011 3.3447 1.72794 0.884787 4.69419 2.42636
1.22421 2.96471 1.63362 0.823167 0.503181 1.93176 0.185295 0.772023 2.17149 0.369722
7.27683 1.53601 -3.80094 7.81167 1.77472 -3.78637 5.70839 0.192653 -3.61811 4.9041
-0.0152838 -3.537 0 0 0 0.140715 0.848058 -0.0742051 9.27879 2.79347
-3.82877 9.09812 2.62315 -3.80326 9.12623 2.73518 -3.846 17.9341 -0.0726594 -0.111086
17.5819 -0.105233 -0.242784 17.7244 -0.102428 -0.0949823 18.0176 -0.0712289 -0.0410932 20.712
0.128618 0.309058 20.2839 -0.00426962 1.01897 0 0 0 3.11338 1.85679
-0.287579 10.1833 3.43202 -2.91114 0 0 0 9.46216 2.86345 -3.80744
19.624 0.0404038 1.92604 19.7229 0.0481435 2.10016 19.515 0.0597625 2.45778 22.0258
0.071868 1.56786 22.4136 -0.0366091 1.58915 22.3203 -0.00381074 2.16741 21.9877 0.0737875
2.01285 0.0426152 0.183813 -0.538523 0.0447775 0.316319 -1.0819 22.0928 0.0920525 1.18393
22.3634 -0.048433 1.05369 9.21167 -2.92085 -2.97461 9.93083 -2.81145 -2.74414 9.17793
-3.14994 -1.5898 20.2105 0.10932 -1.11289 20.1505 0.118851 -1.29958 20.1961 0.120133
-1.35659 20.2546 0.111019 -1.15409 20.7713 0.209162 -1.57619 20.7642 0.175146 -1.24884
20.6756 0.15842 -1.26629 20.6672 0.18328 -1.57696 21.7438 0.303694 -0.990922 21.9111
0.249 -0.711216 21.6514 0.195084 -0.344932 21.5448 0.226122 -0.57358 9.15317 -2.92973
-2.99335 7.49581 -3.56225 -0.616824 6.9026 -4.07281 -0.819668 16.5741 -0.0857957 0.733882
15.8536 -0.059919 0.773848 15.8345 -0.209077 2.38869 16.3024 -0.207209 2.10336 12.8369
0.488249 -2.99757 13.5364 0.505901 -1.8762 13.8901 0.646381 -1.16549 13.9422 0.756602
-0.868308 12.8857 0.7321 -2.33182 12.2391 0.646875 -3.76734 18.4189 0.0919177 3.51383
18.4724 0.124661 4.01707 17.9122 0.160249 4.99169 17.8327 0.22237 4.67389 17.8497
0.124338 4.24679 16.9652 0.482044 5.132 17.7439 0.350028 5.25089 17.851 0.319452
5.05308 17.1083 0.444074 5.26502 6.39327 -4.4007 -0.931829 8.4146 -2.95806 -3.16267
21.4189 0.245943 -0.748436 21.5526 0.3371 -1.17521 16.7734 -0.310511 -0.478197 16.29
-0.330229 -1.43603 16.0727 -0.367143 -1.88774 15.9839 -0.40963 -2.1581 16.4386 -0.391479
-1.22198 16.7206 -0.368032 -0.564378 16.8259 0.0511817 2.13744 16.1161 0.0765797 2.87361
15.1273 0.0887294 2.69153 16.2071 0.0557073 1.96097 -0.90927 -0.789775 1.22756 -0.666906
-0.842397 0.56797 -0.0509879 -0.621124 0.238091 0.635096 -0.424243 -0.0677794 0.46246 -0.608262
0.105571 -0.211465 -0.799767 0.366889 -0.0379017 -0.129583 -1.30805 0.366407 -0.655969 4.61796
1.30512 -0.619461 5.41247 1.1745 -0.0807387 -1.5189 13.2322 0.385227 -2.48937 -0.853157
0.251788 1.59084 -0.841008 -0.189124 0.754809 -0.944432 -0.840496 0.649419 -0.44809 -0.431839
-0.232774 -0.597988 -0.515544 -0.317382 -0.960978 -0.747817 -0.358821 -0.842488 -0.793225 -0.270822
15.5264 0.0317814 0.508928 15.3454 0.0508854 0.975337 13.4701 0.0988405 1.02618 13.3154
0.0956604 0.284591 14.0361 0.0701917 -0.0957948 20.4195 0.104611 0.743387 20.3342 0.115384
0.689092 20.6111 0.222029 0.216667 20.7123 0.216214 0.233153 18.619 0.423279 8.27254
16.5282 0.214521 8.76431 16.6983 0.455791 8.46318 18.4561 0.809771 7.90229 -1.1123
-0.604135 4.51835 -2.11908 -0.23294 -0.524321 14.1425 2.47799 -5.06977 16.4784 1.97272
-5.18716 16.2997 2.03842 -5.45417 14.0353 2.5033 -5.12248 20.8527 0.192878 -1.21418
20.8755 0.237573 -1.554 16.6063 1.92616 -4.99642 15.0739 2.26079 -4.60738 15.6196
-0.301078 3.91043 16.0287 -0.309997 3.51617 16.5378 -0.316238 2.75834 17.8302 -0.158522
0.752213 0 0 0 -0.478849 0.816537 1.98853 -0.507795 0.782616 2.00219
0 0 0 13.323 0.0175044 -2.43824 13.9493 0.447779 -1.17979 13.1576
0.0976588 -2.69506 11.536 0.911032 -4.82262 11.7289 0.869213 -4.77305 13.1466 0.416877
-3.00903 13.3781 0.759148 -2.80157 14.1574 0.778076 -1.4348 14.102 0.516189 -1.33189
-1.05158 -0.271764 1.08182 -1.01068 -0.227593 0.62969 -1.1523 -0.328413 0.621391 8.90439
2.40336 -3.77094 9.69471 2.89722 -3.7882 11.491 2.74519 -3.83057 10.9783 2.66426
-3.8172 11.3909 2.75671 -3.84541 18.5835 0.013787 0.970643 18.3669 0.0180806 1.15166
19.4244 0.0487225 2.22299 19.3634 0.0399065 2.00258 19.5515 0.0340833 1.7578 19.4005
0.0119832 0.887617 19.4943 0.0114456 0.843764 19.4752 0.0132308 0.938967 19.3684 0.0140374
0.996504 15.726 0.651503 5.69203 15.2354 0.707699 5.44761 15.3269 0.673138 4.96691
12.5632 -0.346729 4.32043 11.3593 -0.418623 5.66962 9.33863 -0.548723 6.9281 10.9715
-0.448016 5.43283 13.5871 -0.275873 3.54157 12.8155 -0.328369 4.46926 15.5543 -0.000795101
0.328186 15.6653 -0.00501635 0.433375 15.9255 -0.0038164 0.495256 15.811 0.00644009 0.499202
0 0 0 0.0793012 1.68854 1.56601 0.917554 1.98032 1.43769 0
0 0 -0.030768 2.84418 0.513295 -0.229932 2.32903 0.757707 -1.0685 -1.05598
1.3434 -1.43087 -1.43774 0.268786 2.67325 0.139839 -2.26866 2.57608 0.252591 -2.22402
2.40234 0.607944 -2.13512 2.18419 0.282355 -2.26323 0.521279 2.47967 0.5658 3.09901
0.0270873 -2.08606 3.48154 0.414865 -2.12752 0.640231 -1.33823 9.72777 1.03138 -1.47923
10.2826 1.37161 -1.55842 10.345 -2.8389 1.03925 3.90446 -2.92654 0.956188 3.89974
-3.2343 0.739091 3.92645 -3.20558 0.928271 4.10187 -3.01554 1.10883 4.03742 2.80225
0.504235 -2.38251 2.89805 0.809124 -2.09939 2.81405 -0.162556 -2.23795 14.0313 0.180574
-1.19827 -0.707492 0.0379353 1.5141 -0.569373 0.088414 0.65637 -0.989848 -0.237268 1.36273
-0.644873 -0.206343 1.71821 -0.318358 0.188466 1.35107 0.184664 0.375464 0.547209 7.9568
2.06616 1.29836 13.2733 2.64343 0.585229 12.9262 2.53624 0.661328 8.65094 1.86699
1.8326 0 0 0 0 0 0 -0.82655 0.470768 0.128147
2.61541 -0.382157 -2.51682 3.25756 -0.249952 -2.79432 2.19649 -0.617117 -2.69355 2.18061
-0.627313 -2.68472 2.60416 -0.38883 -2.51319 -0.263525 -0.703017 -2.05365 -0.253613 -0.662918
-2.24342 -0.209996 -0.760991 -2.12676 0.7691 0.980887 -0.0200969 1.09115 1.44355 0.00599053
-0.54502 -0.346107 -0.336322 1.26751 1.74122 2.30221 0.838382 1.79447 2.03393 0.362952
1.58269 1.81102 -0.145586 0.930252 1.60191 0.351584 1.05138 2.10057 -0.484651 -0.480652
-0.168371 -0.738715 -0.775954 -0.170193 1.79503 1.84346 2.35869 1.21382 1.8398 2.07301
-0.439935 -0.360821 -0.0778157 0.309328 0.601716 0.01607 2.42976 1.29923 2.70912 1.06042
0.805673 2.68301 8.41254 -1.42916 2.09169 7.78762 -2.38227 3.03603 8.68878 -2.56499
2.86561 8.99831 -1.71594 2.0678 4.3951 0.179771 -3.1733 3.44388 -0.0757215 -2.6414
3.89724 1.57452 2.23372 3.1885 1.77654 2.27341 2.37689 1.80189 2.22338 8.26723
-0.489443 1.17016 7.97579 -1.09919 2.00321 8.36986 -1.30189 2.01158 14.693 0.0456771
-0.347995 15.3331 0.00774876 0.118133 20.8045 0.211211 0.248008 20.5017 0.0957755 0.793681
-0.243792 2.30173 0.770973 19.197 1.25123 7.17022 19.6165 0.802358 7.44934 16.6038
0.743661 7.76317 18.1174 1.16759 7.39224 -2.81518 1.02761 3.8831 18.7336 1.605
6.83799 -0.163276 -0.781642 -1.64262 -0.180981 -0.685239 -1.32968 -0.267427 -0.746426 -1.65354
-0.269225 -0.72602 -1.94484 1.22662 -1.08891 -2.05161 -0.189775 -0.80648 -2.07256 11.0418
-1.18529 -0.128123 11.2773 -1.35278 -0.384074 10.8801 1.61496 -2.14892 10.6981 1.7078
-1.99104 9.83442 1.21009 -1.33854 9.18536 -1.2006 1.58277 9.42019 -1.32174 1.57627
10.2108 -0.978181 0.730962 10.2835 1.50422 -1.59625 -1.27014 1.55701 0.968303 0
0 0 0 0 0 8.46414 -1.35037 2.01348 9.10381 1.27834
-1.24782 -0.123812 -1.12029 8.39315 9.12376 1.49668 -0.31165 0.0876573 -0.00551866 0.00114454
0.820629 0.123877 0.0139941 2.90925 0.607804 -0.301614 17.0708 0.18331 -4.83327 19.5477
0.418935 -3.88654 19.5965 0.316545 -3.71549 17.4351 0.0469339 -4.63031 19.6452 0.185116
-3.1567 18.2122 -0.0378255 -3.96705 18.0288 -0.0501347 -4.14233 19.6521 0.202911 -3.31271
19.7821 0.00114743 0.0131617 19.7761 0.00116368 0.0348384 19.7107 0.00107512 0.0430272 19.7085
0.00101941 0.0150378 19.1793 -0.00466015 0.0367849 19.3371 -0.0025082 0.00714747 19.3231 -0.00213437
0.0350712 19.8048 0.00136795 0.0841199 19.8367 0.00150266 0.100046 19.781 0.00170911 0.131133
19.7478 0.00145216 0.106399 19.5023 0.00266154 0.286183 19.3295 0.00211463 0.307516 19.4516
0.00195913 0.258228 18.2437 -0.0523245 -0.0177877 18.2418 -0.0504322 -0.0291608 18.209 -0.0508546
-0.0452258 4.88239 -1.59985 0.0504898 5.89105 -1.95395 0.140977 4.03766 -1.39161 0.281869