# vtk DataFile Version 2.0
sampleSurface
ASCII
DATASET POLYDATA
POINTS 9879 float
6 2.24045e-22 1 6 -4.23516e-22 0 5 0 0 5 4.23516e-22
0.5 5 5.02844e-23 1 7 1.69508e-17 0 6 2.40786e-23 1
7 -4.23516e-22 1 8 -1.0754e-16 0 8 4.23516e-22 1 9
-7.28995e-17 0 9 4.23516e-22 1 10 5.03714e-17 0 10 -4.23516e-22
1 11 -1.10109e-16 0 11 0 1 12 1.14673e-16 0
12 0 1 13 1.07357e-16 0 13 -2.11758e-22 1 14
-3.31971e-17 0 14 0 1 15 0 1 15 5.68977e-17
0 -5 -1.61559e-27 0 -5 1.61559e-27 0 -5 0 0.5
-5 8.07794e-28 0.5 -2.89285 0 0 -3.00033 0 0 -3.00033
-8.47033e-22 0.0932873 -1.00051 -1.01779e-17 0.124742 -0.875522 0 0.124691 -0.875461 -8.40257e-19
0 -1.00046 0 0 0.015625 1.94517e-24 2.2091e-05 5.35603e-05 -1.21492e-24 0.0155233
0.0156432 3.30872e-24 0.0155555 1.00057 -5.42101e-19 0.0152422 1.00056 0 0.0308735 1.03181
0 0.0308728 1.03183 -1.89735e-19 0 1.00058 0 0 2 1.21939e-17
0.125 2 2.01948e-28 0.25 2.25 0 0.25 2.25 -1.26744e-17 0
2 2.01948e-28 0 3 2.86199e-17 0.25 3 3.16479e-17 0.5 3.5
2.01948e-28 0.5 3.5 -1.71188e-17 0 3 2.01948e-28 0 4 0
0 4 0 0 4 5.4967e-18 0.5 4 1.00974e-28 0.5
6 2.52435e-29 1 5 0 1 6 2.96289e-24 1 5
3.35588e-25 2 6 4.23516e-22 2 7 4.23516e-22 2 8 0
2 9 -4.23516e-22 2 10 0 2 11 2.11758e-22 2
12 0 2 13 -2.11758e-22 2 14 0 2 15
2.11758e-22 2 -5 0 1 -5 0 1.5 -5 0
1.5 -5 0 1 -1.00051 0 1.00028 -1.0005 1.69407e-21 1.07098
-0.875582 -3.38813e-21 1.04431 -0.875573 0 1.00033 -0.000176494 0 1.00043 -0.000187004
1.35525e-18 1.03171 0.0310738 0 1.03178 0.0310423 5.42101e-20 1.0005 0.0154335 0
1.00047 2.25 0 1 2 5.03191e-18 1 2 -8.15581e-18 1.125
2 6.36148e-18 1.25 2.25 0 1.25 3.5 0 1 3
-7.24998e-18 1 3 -1.28933e-17 1.25 3 -3.74554e-18 1.5 3.5 0
1.5 4 0 1 4 2.0972e-17 1.5 4.50019 3.38813e-21 1.50011
4.50001 3.17637e-22 1.0073 4 -1.00974e-28 1 5 -4.34409e-17 1.5 5
-2.52435e-29 2 5 1.60269e-22 2 5 4.23516e-22 2.5 5 0
3 6 -4.23516e-22 3 7 4.23516e-22 3 8 4.23516e-22 3
9 0 3 10 0 3 11 -2.11758e-22 3 12
2.11758e-22 3 13 -2.11758e-22 3 14 2.11758e-22 3 15 0
3 -5 0 2 -5 0 2 -5 0 2
-0.750281 -2.71051e-20 2.0005 -0.996618 -5.0822e-21 2.00034 -0.884887 3.38813e-21 2.25032 -0.750178
-2.73083e-17 2.25039 0.124965 6.77626e-21 2.00046 0.0589837 -3.38813e-21 2.00046 0.102874 -1.69407e-21
2.25032 0.249982 -1.24887e-17 2.25032 0.249997 1.35525e-20 2.00047 1.0005 1.35525e-20 2.00056
1.00037 1.35525e-20 2.25063 1.25045 -1.35525e-20 2.25054 1.25043 -1.69813e-17 2.00047 1.12546
-1.35525e-20 2.00051 2.00018 3.38813e-21 2.00013 2.00027 1.07133e-17 2.25026 2.25027 6.77626e-21
2.25023 2.25017 6.77626e-21 2.00011 3.5 0 2 3.00014 -1.11944e-17 2.00005
3.00014 2.41235e-17 2.25008 3.00001 2.0117e-21 2.49701 3.5 0 2 4
-1.32349e-23 2 4.00001 0 2.00871 4.5 -3.02248e-22 2.5 4.5 2.52435e-29
2.5 4.50017 2.11758e-22 2.00014 -5 0 4 -4.00035 0 4
-4.0004 -5.66496e-18 3.5 -4.00039 0 3 -4.5002 0 3 -5
-9.5459e-22 3 5 -8.47033e-22 3.5 5 2.1923e-22 4 5 1.90287e-22
4 6 4.23516e-22 4 7 0 4 8 0 4
9 4.23516e-22 4 10 0 4 11 2.11758e-22 4 12
2.11758e-22 4 13 0 4 14 2.11758e-22 4 15 0
4 -5 0 3 -5 0 4 -0.750077 -1.69407e-21 3.00019
-0.975165 6.35275e-22 3.00002 -0.50002 0 3.43551 -0.50014 0 3.00035 0.249985
0 3.00023 0.097637 1.69407e-21 3.00023 0.500042 3.38813e-21 3.26572 0.500014 0
3.00034 1.00005 -1.35525e-20 3.00048 1.00018 8.47033e-22 3.50026 1.50019 0 3.50023
1.50022 -1.55041e-17 3.00052 1.2501 0 3.00055 2.00039 0 3.00045 2.00025
6.77626e-21 3.50028 2.50024 -6.77626e-21 3.50026 2.50027 -2.15688e-17 3.00027 2.25034 0
3.00035 3.0002 -1.69407e-21 3.00018 3.00017 9.52404e-18 3.50018 3.50015 3.38813e-21 3.50016
3.50018 0 3.00016 4.00014 -6.90484e-17 3.50015 4.41401 8.47033e-22 3.50003 4.5
2.24255e-22 3 4.5 0 3 4.00015 0 3.00016 5 0
4 -5 -4.56216e-21 5 -4.00031 0 5 -3.00034 1.35525e-20 5.00001
-3.0004 2.50722e-18 4.5 -3.00052 0 4 -3.50051 -3.61446e-17 4 5
-5.3804e-23 4 4.5 0 4 4.01315 -1.98523e-22 4 6 -1.77009e-22
5 7 8.49641e-23 5 8 -2.44576e-22 5 9 -1.79481e-22 5
10 -8.26783e-24 5 11 3.71066e-23 5 12 7.40495e-23 5 13
-7.46022e-23 5 13 -3.57483e-23 5 14 -2.11758e-22 5 15 0
5 -5 1.00974e-28 5 0.5 0 4 0.499998 0 4
0.5 0 4 1 -1.61559e-27 4 1 -1.61559e-27 4 1.5
-5.24977e-23 4 1.5 0 4 2.00017 -3.38813e-21 4.00019 2 -4.13239e-17
4.5 2.5 0 4.5 2.50016 0 4.00018 3 0 4
3 2.76547e-17 4.5 3.5 -2.52435e-29 4.5 3.5 0 4 5
0 5 4 0 4 4 -3.3529e-17 4.5 4 1.26218e-29
5 6 3.15544e-30 5 7 0 5 8 0 5
9 3.9443e-31 5 10 0 5 11 -9.86076e-32 5 12
-4.93038e-32 5 13 1.2326e-32 5 -5 -1.50785e-21 6 -4.00028 0
6 -3 -2.11758e-22 6 -2 -2.11758e-22 5 -2.50019 3.01205e-17 5.00003
-2 0 6 -1 -2.35712e-17 5 -1.5 1.39417e-17 5 -1
8.47033e-22 6 -1.46255e-06 1.4195e-17 5 -0.500002 2.00704e-17 5 -4.41788e-07 4.23516e-22
6 1 1.75768e-17 5 0.499999 -4.03442e-18 5 1 0 6
2 -1.6111e-22 6 1.5 -2.46127e-23 5 14 -2.49584e-23 6 15
6.49997e-23 6 -5 0 6 2 -1.00974e-28 6 2 -6.34437e-17
5 1.5 4.03897e-28 5 3 5.04871e-29 6 3 -2.10964e-17 5
2.5 0 5 4 -1.26218e-29 6 3.5 2.52435e-29 5 5
-6.31089e-30 6 6 -3.15544e-30 6 7 1.57772e-30 6 8 7.88861e-31
6 9 -3.9443e-31 6 10 0 6 11 0 6
12 -2.46519e-32 6 13 1.2326e-32 6 14 0 6 15
-1.52652e-17 6 -5 -6.17313e-21 7 -4.00025 1.35525e-20 7 -3 6.2323e-23
7 -3 5.04871e-29 7 -3 1.09771e-22 7 -2 4.23516e-22 7
-1 -4.23516e-22 7 -6.20385e-08 0 7 1 0 7 2
0 7 -5 -2.52435e-29 7 -3 0 7 2 5.04871e-29
7 3 2.52435e-29 7 4 0 7 5 6.31089e-30 7
6 -3.15544e-30 7 7 0 7 8 3.9443e-31 7 9
0 7 10 -9.86076e-32 7 11 0 7 12 1.2326e-32
7 13 0 7 14 0 7 15 -1.08141e-17 7
-5 1.7064e-23 8 -4 0 8 -3 1.32733e-22 7 -3
0 8 -2 0 8 -1 -4.23516e-22 8 -4.65216e-09 0
8 1 0 8 2 0 8 -5 7.6473e-18 8
2 -2.52435e-29 8 3 0 8 4 0 8 5
-6.31089e-30 8 6 1.57772e-30 8 7 0 8 8 3.9443e-31
8 9 0 8 10 9.86076e-32 8 11 0 8
12 1.2326e-32 8 13 0 8 14 0 8 15
0 8 1.98072e-05 -1.47443e-18 0.0155232 -6.78597e-10 6.46235e-27 0 -0.015625 1.89557e-19
0 -0.015607 0 0.0155222 0.015625 6.46235e-27 0 0.984621 -2.64274e-19 1.00027
1.00023 6.77626e-21 1.00025 1.00022 0 0.984609 0.984609 0 0.984627 -0.875589
0 0.875281 -1.00051 0 0.875232 -0.000168606 -7.04731e-19 0.984785 -0.0157783 0
0.984748 -0.0157891 0 1.0004 0.984964 -4.87891e-19 0 0.984951 0 0.0152386
0.0154375 2.71051e-20 0.984823 0.500347 0 0 0.484697 -1.40946e-18 0 0.484699
-2.71051e-20 0.0154073 0.50035 2.71051e-20 0.0153902 6.85113e-05 -6.74075e-34 0.497067 0.00351742 0
0.497921 0.00351735 -6.16298e-33 0.497919 0.500935 -5.29396e-23 0.500103 0.500923 1.81265e-19 0.484474
0.485343 0 0.48448 0.485354 -5.29396e-23 0.500107 -1.0005 0 1.12529 -0.875598
0 1.12535 -0.847656 0 1.75035 -0.875511 -8.67701e-18 1.75034 -1.00046 8.00954e-18
1.75027 -1.00043 4.23516e-22 2.00034 -0.000137327 0 2.00046 -0.000174407 -6.77626e-21 1.87558
-0.125203 0 1.87555 -0.125185 -4.78404e-18 2.0005 1.00026 0 1.03153 0.969013
6.77626e-21 1.00028 0.969038 8.80914e-19 1.03156 0.0614109 0 1.87557 -0.0314004 0
1.00037 -0.0314207 0 1.03167 -0.750309 -7.75205e-18 1.87547 -0.750381 0 1.75039
0.124961 0 1.87556 1.00049 5.54298e-18 1.87554 0.875516 1.35525e-20 1.87556 0.875507
0 2.00058 -0.442444 -4.23516e-22 0.0622773 -0.437776 0 0.0622817 -0.437709 -2.11758e-22
0.0234443 -0.0040072 3.0527e-19 0.500638 -0.000168277 0 0.500646 -2.94017e-06 0 0.497049
-0.00322378 0 0.496279 -0.492468 -5.29396e-23 0.500175 -0.469803 -2.11758e-22 0.500181 -0.469837
0 0.468841 -0.501073 0 0.468827 -0.501061 2.64698e-23 0.480492 -0.000101869 -1.47052e-19
0.504366 -0.00397949 -2.01948e-28 0.504355 -0.501028 0 0.522018 -0.501022 0 0.531434
-0.469779 0 0.531436 0.00364412 0 0.500984 0.00375691 0 0.504522 0.485366
0 0.514811 0.485366 0 0.515734 0.500948 0 0.515729 0.500947 -1.65436e-24
0.515118 -0.500391 3.52366e-19 0.0622223 -0.437669 4.23516e-22 0 -0.500304 0 0
-0.501042 0 0.500173 -0.50037 -5.42101e-20 1.00067 -0.43782 0 1.00061 -0.437881
5.42101e-20 0.938131 -0.500433 0 0.93818 0.500963 -5.14996e-19 0.984633 0.485343 0
0.984612 0.485309 -1.35525e-20 1.00027 0.500901 2.71051e-20 1.00034 -2.0003 0 0
-2.00031 0 0.249984 -1.75035 -6.77626e-21 0.249978 -1.75034 -2.12097e-18 0 -1.12549
1.69407e-21 0.0567975 -1.12551 -3.38813e-21 0.124883 -1.1051 0 0.12486 -2.00053 -4.06576e-19
0.750021 -2.00052 0 1.00001 -1.75043 0 1 -1.75044 1.35525e-20 0.750004
1.03145 0 1.00022 1.03142 0 0.968935 1.0002 -6.77626e-21 0.968969 -1.12548
0 0 -1.12547 0 0.875178 -1.12544 0 1.00021 -0.562867 -4.63496e-18
0 -0.562923 0 0.0621015 -0.875622 1.40946e-18 0.499992 -0.875629 -1.40946e-18 0.43746
-0.875614 0 0.37493 -1.00058 -1.35525e-20 0.374847 -1.0006 -6.77626e-21 0.499982 -0.501071
0 0.459931 -0.501067 7.5513e-19 0.437262 -0.563478 0 0.437296 -0.563493 0
0.500081 1.875 7.07317e-18 0 1.875 0 0.125 2 -9.02096e-18 0.875
1.875 -1.00974e-28 0.875 1.875 0 1 -0.501021 2.64698e-23 0.532727 0.516516
0 0.515723 0.516516 -1.65436e-24 0.515322 -1.00059 3.04932e-18 0.625092 -0.875599 0
0.625021 -0.875605 0 0.562503 -0.563001 -5.42101e-20 0.938195 -0.562935 0 1.00068
-0.501004 6.60686e-20 0.562681 -0.563465 6.77626e-21 0.562645 0.515999 -2.71051e-20 0.0153741 0.515996
1.89735e-19 0 1.00002 0 0.499997 1.00004 6.91179e-19 0.484354 0.984415 3.38813e-21
0.484354 0.984397 0 0.499997 0.516504 -1.57919e-19 0.500096 0.516494 -4.23516e-22 0.484467
0.984397 0 0.515625 1.00002 0 0.515625 0.516455 3.25261e-19 1.00046 0.516567
-2.71051e-20 0.984687 -0.000486907 -2.11758e-22 0.751673 0.0150628 0 0.751704 0.0151069 -2.11758e-22
0.736039 -0.000466544 1.79846e-18 0.73608 0.250631 -1.05879e-22 0.499142 0.234996 0 0.4991
0.235042 0 0.51471 0.250685 1.77115e-18 0.514757 0.234396 1.59578e-18 0.751475 0.250021
2.64698e-23 0.751472 0.250098 0 0.735925 0.234416 0 0.735938 0.500674 0
1.03185 0.469677 2.71051e-20 1.00028 0.46947 -2.71051e-20 1.0318 -0.000487113 0 0.767278
0.0150573 0 0.767313 0.249988 1.48893e-23 0.985961 0.249988 0 0.985377 0.234363
0 0.98538 0.234363 8.27181e-25 1.00097 0.234889 9.09899e-24 1.00097 0.250006 2.3521e-18
0.76703 0.234384 0 0.767027 0.249988 -2.64698e-23 1.00096 0.250614 0 0.249941
0.237135 1.32349e-23 0.249938 0.250669 1.98523e-23 0.26291 0.484921 5.42101e-19 0.249634 0.484944
-5.42101e-20 0.265243 0.500584 0 0.265233 0.500562 5.42101e-20 0.249623 0.25266 0
[...]
POINT_DATA 9879
FIELD attributes 1
p 1 9879 float
-0.144825 1.38163 1.70197 0.00247198 -2.61451 0.635656 -0.144825 -0.198357 0.208865 -0.252889 0.128448
-0.195003 0.11545 -0.130708 0.0935717 -0.0944855 0.0756726 -0.0717431 0.0652223 -0.0512166 0.0632064
-0.0266308 0 0.0329332 0.677724 0.677724 0.683679 0.683679 0.586561 0.609247 0.617032
-4.52252 -6.88494 -7.58994 -4.97932 -71.7058 -73.025 -71.8281 4.00103 4.07255 4.23664
4.15862 3.9674 2.7802 1.94513 0.946101 1.56033 2.41117 1.60298 0.128642 -1.07443
-0.465257 0.50616 0.433231 0.43323 -0.441652 -0.441652 -0.144825 -2.61451 -0.144825 -0.547948
-0.781946 -0.367303 -0.212458 -0.146211 -0.0961997 -0.0617464 -0.0399027 -0.0232453 -0.0139075 0
0.699647 0.7206 0.7206 0.699647 5.0684 5.10206 6.92986 7.00129 44.5789 40.3227
40.269 44.5105 44.9351 -18.2372 -17.687 -2.15803 4.65077 -0.325935 -3.37864 -11.0813
-4.71033 0.229186 -2.3562 -2.70634 -2.02163 -2.33671 -3.29479 -2.70634 -2.56576 -0.547948
-0.547948 0.0519589 0.186653 0.121233 0.160233 0.121969 0.0780561 0.0585841 0.0522903 0.0491614
0.0453189 0.0339057 0 0.74074 0.74074 0.74074 3.70517 3.0322 2.73943 2.97911
5.49941 5.43168 3.87143 3.83425 5.24071 3.62204 2.85223 2.5439 3.23164 3.46304
2.86333 2.03432 1.85431 2.59514 0.583257 1.75658 1.48989 1.13949 0.583257 0.155548
0.156975 0.0979456 0.0979456 -0.128293 0.763262 0.777942 0.790753 0.789428 0.767651 0.763833
0.236841 0.230671 0.230671 0.134266 0.0483779 0.00731544 -0.00402172 -0.00304202 0.00185317 0.00625486
0.00787874 0.00666441 0 0.763833 0.763262 1.78268 1.63096 1.44589 1.85184 1.99106
1.972 1.59515 1.86078 1.60902 1.21433 1.02946 1.3258 1.49645 1.08646 0.849659
0.693595 0.907775 1.02246 0.70184 0.545778 0.396782 0.461872 0.285528 0.254096 0.213756
0.213756 0.249268 0.230671 0.750145 0.756492 0.777022 0.808338 0.837343 0.803247 0.230671
0.257372 0.295118 0.145269 0.0926899 0.0715279 0.060653 0.0502304 0.041274 0.0337966 0.0262212
0.0262212 0.0173469 0 0.750145 1.07691 1.07691 1.07691 0.978625 0.978625 0.850287
0.850287 0.717026 0.636346 0.53812 0.591993 0.479108 0.449404 0.372832 0.376748 0.219746
0.296137 0.317103 0.31102 0.145269 0.0926899 0.0715279 0.060653 0.0502304 0.041274 0.0337966
0.0262212 0.733706 0.735221 0.739756 0.814505 0.800853 0.74313 0.842695 0.841283 0.734192
0.826801 0.85702 0.698388 0.733286 0.804189 0.625225 0.520647 0.670764 0.00672231 0
0.733706 0.520647 0.58215 0.670764 0.407866 0.429497 0.506446 0.309589 0.367103 0.229129
0.164399 0.11857 0.0873191 0.0633704 0.0444402 0.0308691 0.02121 0.01335 0.00672231 0
0.721482 0.720699 0.717333 0.717333 0.717333 0.707996 0.686561 0.645483 0.57989 0.493284
0.721482 0.717333 0.493284 0.398611 0.310666 0.236369 0.176436 0.130322 0.0959864 0.0707542
0.0521808 0.0385107 0.0280243 0.0190159 0.0108665 0 0.717079 0.715675 0.717333 0.710176
0.697491 0.672899 0.630642 0.567328 0.485914 0.717079 0.485914 0.396628 0.31226 0.240127
0.18115 0.134816 0.0999676 0.0741981 0.0547282 0.0396561 0.0276816 0.0174899 0.00881182 0.00246263
-73.0275 -72.897 -73.9045 -74.0432 -71.7056 5.60904 5.82987 5.10643 4.70457 6.74529
4.66897 46.8929 46.7803 44.8152 3.86632 3.91809 46.9052 -12.7434 -14.0437 -13.9883
-12.6875 34.2727 21.3845 21.3871 -25.1329 -22.4444 -24.7014 -27.2724 5.12787 6.79808
4.39333 4.2616 3.60924 3.02177 5.37101 6.42785 6.30267 5.41668 6.02621 5.17423
5.97259 6.41529 44.2807 40.0738 4.28977 4.85331 6.40221 4.10205 4.40892 3.94885
-36.3413 -36.8865 -36.895 43.6486 30.9366 34.5397 48.3077 13.3024 15.436 9.29388
7.81454 9.55643 26.187 40.8851 15.8728 17.3287 20.6107 16.643 10.0545 -29.5614
-29.7051 -27.7383 -27.6365 -29.573 -36.9001 -29.8348 12.4953 19.7644 23.1382 25.9572
21.6894 13.5538 14.5195 14.8955 14.0385 0.196057 0.280685 0.0295466 -0.122775 -3.11388
-2.95816 -3.21365 0.780865 1.03638 1.28187 0.887406 5.40651 3.8502 3.82973 -3.24377
3.32939 3.74408 -23.9972 -23.6407 1.16591 -0.439857 -2.07952 -1.46295 0.544079 6.23879
2.22338 1.42675 8.34265 3.61093 3.77521 -26.9293 -26.0929 -15.0547 17.4509 -25.8949
-25.824 2.3871 3.96541 2.7886 18.0221 16.7574 20.2841 13.9393 -11.4541 -11.5104
3.54359 4.5838 4.64135 3.58876 -23.1339 -20.342 2.21538 2.30023 13.1014 12.644
103.483 103.875 109.532 109.013 -108.546 -120.442 -124.356 -111.234 54.117 45.7223
44.4556 54.4355 14.6862 15.9259 16.3678 98.1902 98.4783 34.5515 34.594 36.0063
34.9343 34.8847 46.3683 53.5465 33.4606 -52.9139 -56.4512 -54.4539 -10.6122 -10.3682
-8.70949 -8.99944 -54.2358 -50.5753 -48.9697 12.3283 14.028 13.8615 12.4314 9.9635
10.0288 12.5486 12.2227 12.5534 14.0105 9.32156 10.2104 10.946 10.062 17.9326
20.5924 8.75143 11.7612 10.5737 -130.999 -122.942 -126.015 -134.572 115.416 118.467
132.27 132.521 -92.0098 -100.596 -118.857 -105.629 -23.9899 -25.001 -25.9751 105.528
100.469 -78.4614 -82.8646 102.877 108.261 119.076 130.435 108.23 -119.351 -126.933
-104.991 -115.752 -54.7685 -57.0039 -59.1227 -97.6288 -94.9337 158.801 152.279 153.213
159.08 159.263 -203.764 -206.99 -210.608 -208.455 163.485 167.347 165.872 162.168
-99.4222 -12.1 -13.1665 -15.7269 -14.8379 37.6601 34.8945 -22.8793 -17.0555 -19.7568
-30.0723 -32.0196 68.8604 74.9113 81.7037 74.5837 34.4563 35.9241 26.5106 26.4978
67.3097 62.7211 103.993 97.5717 94.1673 100.615 -59.3887 -67.2665 -51.4183 -46.0152
165.026 159.371 160.698 97.6893 34.8597 36.7118 40.0935 37.9239 63.4402 68.6619
-199.283 -203.371 -216.98 -234.005 -221.968 -206.507 -145.398 -137.307 -146.385 -155.166
32.3324 32.3005 33.1474 -10.4663 -9.30179 39.4042 -199.492 -204.988 -70.2637 -79.3701
169.235 -272.671 -272.671 -268.001 -265.869 -271.307 -287.329 -279.619 -260.579 -267.425
-53.6528 -42.4416 0.853117 -2.71023 0.31032 3.93829 -33.3045 -33.5662 -28.1273 -28.3697
-272.671 41.3267 33.3514 30.4658 38.7613 104.826 97.3953 103.211 111.345 -41.493
-43.7392 -43.738 -41.4846 -51.259 -54.7261 -63.9036 -67.8102 -67.5857 -63.819 -115.713
-118.403 -84.8427 -95.2445 -112.532 -55.1062 -64.3718 -68.191 -59.2594 -59.2468 -35.1499
-35.1893 -26.6009 -26.5894 -74.2539 150.986 159.217 158.208 170.297 170.126 167.272
167.382 134.596 129.661 133.034 137.999 -276.946 -276.213 -59.8381 35.6454 32.8927
25.3471 31.9058 58.118 -276.946 145.794 146.961 100.045 106.338 158.284 78.0482
70.6745 74.1007 82.7416 35.2994 42.0982 99.6362 93.0042 91.6966 88.387 45.3126
42.3309 43.2944 46.6392 65.3691 62.0568 60.3005 63.4213 -194.914 -74.9901 -81.8028
-86.2753 -79.0195 -128.505 -135.998 -62.9771 -49.8093 -48.8023 -53.4394 -54.282 -38.2789
-39.3073 136.181 127.45 124.999 129.985 135.783 136.855 111.004 117.368 -269.182
-263.67 -170.891 -182.458 -191.323 -179.282 -224.172 -230.576 -222.586 -217.519 -110.023
-128.53 -124.057 -104.711 -197.357 -202.175 -188.151 -185.86 -211.747 -214.874 -218.358
-211.817 -226.42 -228.36 -217.682 -215.241 -228.986 -219.657 -228.161 -232.184 -109.459
-115.286 -127.77 -122.489 139.296 137.091 143.272 144.823 67.9462 66.8669 73.8176
80.5689 78.6064 133.151 131.041 67.4511 6.17618 65.4179 89.5577 -212.869 -212.206
-226.214 -227.181 -220.831 -222.78 -224.009 -219.332 159.739 156.584 157.727 160.424
-300.176 -307.432 12.9279 4.54606 -12.9774 -8.75222 3.61949 -102.092 -96.5195 46.5683
8.71701 -51.4795 -270.527 -253.688 -169.659 -160.23 -173.37 -183.67 -208.986 -193.563
-203.559 -236.789 -237.625 -295.075 -284.3 -288.486 -236.911 -239.546 26.0634 23.2824
-27.8811 -37.0175 -39.3345 -28.1441 3.26851 -2.8765 -10.783 -5.10549 16.8596 21.8745
24.6473 57.3872 55.4919 61.0754 52.6503 -216.776 -198.088 -217.26 -224.338 -221.182
-231.057 -232.509 -226.087 -75.6749 -85.252 -104.072 -101.552 125.46 118.086 129.828
135.478 59.9122 48.7371 65.3508 70.7713 117.735 109.252 98.7967 90.3628 94.6105
104.064 -227.339 -246.065 173.119 173.556 -271.821 -273.702 -308.134 -303.679 -274.374
-291.836 -302.192 -292.527 -282.816 -233.033 -238.817 -17.0133 -12.0932 3.88391 0.269421
-0.0824299 2.63807 -7.62511 -5.4259 -6.92414 -9.86621 19.7336 20.392 5.05666 7.01986
9.40249 12.14 11.1198 8.44655 -222.079 -212.377 -154.188 -184.854 -200.463 -187.52
-170.851 -161.45 -216.969 -221.216 -249.016 -255.106 -244.795 -239.276 -215.993 -212.88
-221.043 -224.858 -246.103 -247.979 -234.604 -236.522 -210.033 -194.832 -217.601 -256.88
-224.805 -192.465 -187.259 -196.338 -200.701 -230.248 -220.437 -206.773 -211.006 -205.185
-100.75 -97.8599 -64.6306 73.9411 48.3528 109.451 102.136 94.3198 -100.75 -66.1998
-48.8985 26.9037 21.0111 6.75754 8.20466 -24.3504 -37.8596 -43.9317 -28.1454 51.6751
43.5169 29.6811 37.2566 36.0978 33.7779 37.6395 39.646 -225.967 -190.258 -169.145
-208.323 -209.383 -223.368 -301.049 -312.065 155.447 152.752 153.749 156.713 -368.993
-373.447 -382.105 -376.163 159.703 175.75 176.005 155.485 153.708 148.065 149.278
160.643 160.623 163.947 162.976 -327.297 -332.987 -336.88 -330.875 -294.197 -290.289
-296.25 -299.552 -34.6062 -69.308 -49.6996 -20.197 -169.605 -141.663 -130.255 175.75
-201.082 -209.979 -130.811 -140.717 -142.328 -132.357 -244.724 -244.443 169.915 172.631
-160.278 -130.303 -132.578 -152.584 -172.517 -272.2 -308.684 167.049 101.008 93.7747
105.199 114.673 108.819 126.093 131.17 -192.012 -92.9908 -88.5275 -93.211 -98.079
-129.579 -137.986 152.897 154.939 162.387 157.543 156.426 159.07 162.764 159.438
160.203 163.606 171.536 168.831 170.007 172.127 152.897 172.127 171.536 150.351
145.8 146.114 151.03 167.883 170.601 169.021 163.647 164.852 145.766 152.308
152.189 146.267 -281.631 -273.201 -187.079 -175.477 -185.681 -198.474 -211.382 -225.914
-234.27 -239.936 -291.182 -216.178 -253.648 -256.356 -180.578 -235.1 -235.586 -297.379
-298.463 -279.913 -224.093 -245.642 -241.462 -281.915 -270.015 -271.171 -282.375 -284.753
-269.464 -298.463 -281.915 -271.171 -188.146 -188.146 -168.722 -172.683 -192.191 163.354
166.552 162.085 -188.146 163.354 166.552 158.182 160.149 158.058 154.094 149.307
151.562 155.5 156.485 158.961 157.576 -55.0201 -95.0264 -223.13 -190.316 -221.709
-176.67 -175.088 -182.056 -163.469 -171.538 -162.368 -153.62 -245.209 -248.44 -220.454
-229.561 -175.074 149.923 151.036 157.895 128.528 136.675 136.133 129.253 129.339
136.594 141.433 145.926 171.382 168.506 144.992 152.122 -121.403 -132.204 -210.676
-221.515 -226.435 -213.489 -142.479 -159.06 -156.938 -138.384 -156.343 -151.222 -94.6323
-110.517 163.354 156.371 156.741 130.458 138.503 159.115 161.929 169.246 168.472
165.699 166.443 171.536 170.705 167.894 171.779 171.779 170.878 172.44 171.779
172.44 -239.409 -239.201 -248.254 -246.406 -271.171 -248.391 -246.56 -269.609 -265.701
144.53 -290.336 -255.565 -280.724 -269.901 -247.071 -355.984 -362.185 -346.046 159.271
-438.269 -447.982 -470.285 -460.064 -381.232 -388.806 -262.243 -289.501 -419.217 -411.321
-366.066 -385.907 -259.006 -266.019 -261.011 -285.67 -288.925 -328.77 -323.159 -264.74
-256.607 -265.195 -273.825 -281.655 -291.849 -297.43 -301.034 -191.354 -212.002 -214.624
-204.242 -199.076 -174.419 -181.141 -113.65 -125.783 -136.783 -125.276 -155.85 -146.721
-184.385 -232.051 -252.736 -208.762 -207.991 -204.942 -203.735 -199.134 -210.157 -211.853
-339.313 -343.81 118.77 111.204 112.572 119.88 4.67953 11.0391 117.762 110.568
138.225 123.566 109.93 126.654 14.1072 7.3924 -11.3463 -4.01968 -18.3547 -25.5217
-41.0086 -36.9944 -69.7541 -57.9227 -40.1419 -51.5029 -36.9931 -18.3505 -146.458 -154.381
-112.456 -128.872 -182.925 173.815 179.243 183.376 175.813 -118.586 -80.7314 -49.745
-83.5399 -621.64 -564.943 -587.155 -639.413 -128.693 -138.432 -126.107 -149.575 -242.13
29.5584 38.3898 31.0134 20.7619 16.5957 -104.554 -100.873 -36.3115 -25.1142 -13.0056
-21.0465 -30.4032 144.3 95.5247 91.1279 93.3553 97.908 124.634 127.897 175.274
173.231 173.884 175.274 173.231 -262.853 -260.256 -272.544 -269.171 -265.038 175.446
148.386 142.679 145.904 152.182 160.397 163.298 -280.818 -280.818 166.552 165.614
161.272 174.262 171.744 172.563 164.127 160.25 160.581 164.677 -244.539 -251.561
-261.546 -264.443 -258.714 -256.054 -242.87 -238.932 -249.868 -253.65 -255.781 -249.821
-175.373 -192.909 -223.363 -240.563 -245.576 -225.904 -178.781 -192.641 -193.486 -178.594
-218.369 -198.525 -194.35 -213.218 -152.14 -149.828 -161.83 -162.374 -145.494 -160.06
-293.421 -305.074 -312.49 -289.018 -289.26 -289.26 168.436 171.775 173.023 169.595
180.639 180.569 178.946 180.724 -285.224 -284.534 -266.925 -269.736 -283.128 -285.692
-280.35 -277.705 180.569 -114.854 -107.927 -100.572 -94.765 -103.193 -123.142 -128.05
-107.313 -121.988 -307.803 -310.712 -310.712 -323.999 -329.433 -329.433 -323.999 -317.056
-317.056 -334.517 -330.474 -344.314 -339.843 -333.299 -320.336 -374.224 -377.055 -375.73
-374.44 -370.12 125.455 126.111 -340.754 -355.445 -350.94 -378.549 -5.60731 186.233
184.281 190.716 192.764 154.135 154.915 149.193 133.158 -304.684 -308.93 -307.525
-315.725 -311.796 -317.191 -321.382 -322.973 -301.101 -306.074 -306.43 -310.212 -316.231
-113.926 -102.086 -56.4095 -52.1364 -85.9631 -74.2844 -374.44 -52.1335 -453.611 -474.4
171.804 175.866 -519.366 -648.91 -547.081 -102.266 -138.949 -284.861 -245.302 -221.618
-255.79 -275.48 -487.554 -483.331 -523.755 -574.873 -425.598 -259.568 -297.754 -299.452
-471.573 146.922 152.351 168.441 167.51 144.989 137.735 141.369 148.004 167.815
165.059 163.912 165.578 166.117 169.053 166.854 164.734 168.162 170.676 167.252
170.42 172.222 169.256 170.851 173.024 170.764 172.622 167.811 166.911 165.95
172.347 -255.839 -242.664 -252.117 -268.698 -312.748 -296.519 -311.401 174.375 -233.436
-239.348 -228.184 -232 -243.384 -312.624 -312.586 -298.241 -286.976 -277.837 -311.401
-312.748 -259.803 -262.772 -260.741 -274.189 -298.463 -256.04 -164.544 -139.235 -119.62
-146.195 -161.345 -180.95 -255.851 -249.542 -264.039 -238.835 -260.303 -205.687 -256.279
-258.462 -264.044 -260.317 174.265 174.282 171.045 161.842 158.567 159.488 162.362
159.967 163.596 174.282 -235.711 -220.313 -178.114 -177.77 -202.567 -203.393 -190.769
-180.098 -191.68 -125.572 -139.421 -119.704 -139.421 -145.538 -162.258 -160.123 -130.18
-139.421 -119.704 165.049 170.148 167.233 164.257 -301.625 172.236 172.213 172.236
172.213 166.602 169.71 -434.5 -411.026 -416.481 -437.557 -404.018 -426.611 -348.024
-370.208 -365.37 -347.429 -389.269 -395.107 -348.647 -330.498 -338.065 -354.306 -299.303
-302.148 -288.443 -290.926 -135.386 -137.054 82.9558 71.0339 73.8986 84.5848 28.3651
32.1906 80.9761 68.5212 78.787 64.1183 64.8586 78.6814 -56.6509 -31.0937 52.3432
62.0905 49.3705 41.3783 -12.5258 -6.81449 10.4104 9.86192 168.905 111.831 108.289
117.704 123.244 132.786 140.294 39.1359 50.0863 45.9701 81.6888 94.0672 85.7786
48.5462 49.822 59.116 58.8851 166.902 171.08 172.727 173.583 155.22 148.746
126.875 127.639 133.948 133.046 128.844 135.454 171.906 169.191 169.243 -212.542
-228.518 -211.99 -228.518 -227.739 -245.894 -210.793 -228.518 -211.99 -245.894 -225.736
-233.502 -232.64 -240.064 -210.752 -221.992 -230.941 -237.342 -233.321 -225.355 141.381
142.308 146.621 145.76 162.242 159.94 156.458 158.422 145.402 146.839 151.701
149.895 226.991 210.69 209.905 237.667 238.458 238.458 173.453 187.184 222.568
130.943 118.333 131.277 155.158 153.263 150.224 153.776 145.817 137.825 174.859
183.722 173.142 157.065 156.8 155.993 238.458 179.708 177.928 171.886 169.192
169.719 171.983 177.909 177.686 177.192 176.122 176.422 169.285 169.378 166.661
165.956 165.941 164.844 164.078 165.133 165.149 157.153 153.882 154.928 157.712
163.225 163.985 179.708 177.909 -312.74 -312.745 -280.735 -261.472 -312.745 -302.508
-257.872 -262.857 -312.745 165.651 163.936 156.765 156.516 160.999 159.321 158.915
160.053 163.768 162.25 163.529 165.031 165.091 162.75 168.918 170.64 168.921
167.252 -445.146 -425.632 -455.827 -454.139 -413.864 -404.863 -397.349 -405.355 -394.648
-402.422 -399.658 -392.547 -434.167 -426.901 -419.83 -425.848 -434.167 -324.167 -309
-317.973 -331.731 -383.508 -328.432 -343.396 -454.139 -434.167 5.13156 -18.3361 5.13594
-354.714 -356.908 -354.45 -350.358 93.4196 94.0175 -359.97 -358.854 -0.718716 -356.908
-354.45 -359.97 183.026 170.5 175.994 188.564 188.163 187.538 189.39 190.11
186.382 184.762 279.918 269.503 247.979 255.931 71.1095 91.0929 71.7735 42.1807
35.754 -430.907 -392.303 -327.022 -343.966 269.755 212.663 230.319 -453.712 -515.004
189.39 173.231 173.502 166.287 170.616 182.976 187.326 163.943 165.723 170.998
168.549 168.638 167.821 177.128 176.23 177.546 181.021 180.3 176.997 175.59
178.758 -312.473 -317.056 -312.473 -332.506 -333.23 -332.507 -313.169 -319.293 -324.097
-318.658 -350.516 -345.406 -334.721 -340.556 -335.012 -330.029 -355.457 -357.336 -363.231
-357.8 -351.777 -341.342 -346.2 136.67 137.37 141.148 143.825 139.938 164.244
160.111 -410.699 -410.699 -402.692 -397.386 -389.506 -381.844 -388.111 -395.321 -362.954
-368.908 -375.401 -381.629 73.2047 96.3484 107.5 82.3712 150.405 120.805 205.286
214.001 176.666 172.202 180.321 186.189 186.643 207.377 -312.089 -333.501 -338.99
-334.318 -330.255 141.148 -410.699 -471.088 -494.734 -485.702 -464.941 169.47 172.351
186.008 180.641 180.461 176.953 176.434 -476.469 -499.498 -362.473 -409.644 -378.208
-340.592 -326.514 -364.545 -247.848 -269.32 -309.509 -279.332 -354.385 -374.409 -438.179
-435.738 -352.35 -379.531 -379.461 -356.943 -440.902 -347.047 -381.711 -355.008 -379.084
169.193 173.065 177.595 168.154 168.153 162.411 161.237 174.423 178.449 177.631
174.111 174.267 172.362 170.651 167.903 174.111 168.154 177.595 174.111 172.362
-316.171 -312.802 -289.46 -311.401 -273.57 -312.906 -251.247 -270.831 -279.726 -266.678
-259.086 -283.506 -291.925 -263.067 -275.439 -257.91 -255.291 -241.384 -268.376 165.702
167.009 173.136 171.082 171.082 173.57 175.732 177.472 172.276 174.804 -450.841
-449.74 -449.725 -419.453 -420.008 -430.406 -421.504 -414.401 -449.617 -443.841 -435.759
-430.519 -437.994 167.009 171.082 -450.841 -430.406 -443.841 -437.994 160.185 169.753
94.3948 117.333 108.849 224.648 219.444 225.061 198.291 -552.735 -619.652 -628.755
-566.125 173.02 174.35 198.594 197.213 179.131 178.802 182.694 184.099 -458.754
-478.369 -504.395 -487.899 267.179 236.89 185.303 106 249.928 175.462 177.103
179.431 178.847 174.868 178.003 174.427 174.335 183.804 185.969 188.902 187.052
217.211 214.21 204.218 205.43 209.314 204.493 198.603 194.217 198.475 214.585
202.503 206.569 218.831 223.829 233.188 228.154 202.833 211.121 124.825 150.488
118.112 96.3852 -711.657 -425.195 -354.21 -123.73 -73.444 -12.5024 -36.949 -531.336
-602.578 -589.897 -847.165 -724.491 205.43 233.188 -28.8304 -53.5326 -136.023 -92.0478
-53.5325 55.2266 18.2451 43.9905 -53.5328 -136.023 179.188 177.767 177.914 178.284
176.345 174.869 177.769 177.914 -45.8376 -43.7949 -54.1613 -55.1045 -104.941 -34.0761
-45.8356 -76.3857 -53.5476 -45.9056 -59.0352 -66.7861 -22.5901 -32.2637 -154.337 -129.765
-125.279 -153.192 -312.431 -215.182 -227.11 -179.477 -171.687 -212.751 -220.094 -402.892
-114.17 -170.702 149.574 186.004 38.3552 52.9708 194.993 203.703 142.362 166.642
154.295 180.794 190.608 193.781 171.122 150.929 -116.821 -230.695 0.650973 0.604046
0.516163 0.503695 0.437036 0.391985 0.746007 0.820149 0.711962 0.898283 0.732379 1.26966
-0.467426 -3.30898 -2.61451 -10.919 -12.0609 -11.7683 -5.01536 -3.26189 -9.91222 -5.8597
-59.3848 -61.4649 -61.5308 -59.441 -64.1612 -66.6648 -68.3614 -65.7206 3.27477 4.88107
5.29156 4.23918 4.46973 4.65711 4.44887 1.99632 3.07256 -22.0409 -20.8954 -8.44337
-12.2182 -14.8712 0.836922 0.985365 0.929288 1.22533 1.03264 0.890332 1.04594 1.0464
1.36487 1.37249 1.16862 1.1739 1.54125 4.83325 1.61835 1.668 3.21862 2.91664
6.01512 3.9165 2.42613 2.73634 15.4243 8.78947 7.46889 34.969 35.9651 33.2838
31.2337 21.6772 21.5825 25.3643 25.5187 21.8887 23.4865 20.2395 19.0775 0.589402
3.85656 4.60929 4.54689 4.05112 3.45003 2.97882 -3.29048 3.86626 1.92998 2.33358
2.10019 1.03564 0.904274 1.25809 1.34791 0.892077 0.991132 1.14066 1.53429 2.5342
2.35094 2.13457 1.34543 1.50745 1.64726 1.44446 1.61421 1.68445 1.83845 1.66465
1.50338 3.89742 5.08433 3.74351 1.95978 2.38541 2.33158 1.98188 2.37338 1.12513
1.13524 1.139 0.657065 0.237484 0.646663 0.240552 1.85241 2.04068 4.16617 3.21838
2.35597 1.90359 2.08853 1.79058 2.16612 1.71819 1.2742 1.40066 1.2218 1.57687