# vtk DataFile Version 2.0
sampleSurface
ASCII
DATASET POLYDATA
POINTS 9879 float
6 2.24045e-22 1 6 -4.23516e-22 0 5 0 0 5 4.23516e-22
0.5 5 5.02844e-23 1 7 1.69508e-17 0 6 2.40786e-23 1
7 -4.23516e-22 1 8 -1.0754e-16 0 8 4.23516e-22 1 9
-7.28995e-17 0 9 4.23516e-22 1 10 5.03714e-17 0 10 -4.23516e-22
1 11 -1.10109e-16 0 11 0 1 12 1.14673e-16 0
12 0 1 13 1.07357e-16 0 13 -2.11758e-22 1 14
-3.31971e-17 0 14 0 1 15 0 1 15 5.68977e-17
0 -5 -1.61559e-27 0 -5 1.61559e-27 0 -5 0 0.5
-5 8.07794e-28 0.5 -2.89285 0 0 -3.00033 0 0 -3.00033
-8.47033e-22 0.0932873 -1.00051 -1.01779e-17 0.124742 -0.875522 0 0.124691 -0.875461 -8.40257e-19
0 -1.00046 0 0 0.015625 1.94517e-24 2.2091e-05 5.35603e-05 -1.21492e-24 0.0155233
0.0156432 3.30872e-24 0.0155555 1.00057 -5.42101e-19 0.0152422 1.00056 0 0.0308735 1.03181
0 0.0308728 1.03183 -1.89735e-19 0 1.00058 0 0 2 1.21939e-17
0.125 2 2.01948e-28 0.25 2.25 0 0.25 2.25 -1.26744e-17 0
2 2.01948e-28 0 3 2.86199e-17 0.25 3 3.16479e-17 0.5 3.5
2.01948e-28 0.5 3.5 -1.71188e-17 0 3 2.01948e-28 0 4 0
0 4 0 0 4 5.4967e-18 0.5 4 1.00974e-28 0.5
6 2.52435e-29 1 5 0 1 6 2.96289e-24 1 5
3.35588e-25 2 6 4.23516e-22 2 7 4.23516e-22 2 8 0
2 9 -4.23516e-22 2 10 0 2 11 2.11758e-22 2
12 0 2 13 -2.11758e-22 2 14 0 2 15
2.11758e-22 2 -5 0 1 -5 0 1.5 -5 0
1.5 -5 0 1 -1.00051 0 1.00028 -1.0005 1.69407e-21 1.07098
-0.875582 -3.38813e-21 1.04431 -0.875573 0 1.00033 -0.000176494 0 1.00043 -0.000187004
1.35525e-18 1.03171 0.0310738 0 1.03178 0.0310423 5.42101e-20 1.0005 0.0154335 0
1.00047 2.25 0 1 2 5.03191e-18 1 2 -8.15581e-18 1.125
2 6.36148e-18 1.25 2.25 0 1.25 3.5 0 1 3
-7.24998e-18 1 3 -1.28933e-17 1.25 3 -3.74554e-18 1.5 3.5 0
1.5 4 0 1 4 2.0972e-17 1.5 4.50019 3.38813e-21 1.50011
4.50001 3.17637e-22 1.0073 4 -1.00974e-28 1 5 -4.34409e-17 1.5 5
-2.52435e-29 2 5 1.60269e-22 2 5 4.23516e-22 2.5 5 0
3 6 -4.23516e-22 3 7 4.23516e-22 3 8 4.23516e-22 3
9 0 3 10 0 3 11 -2.11758e-22 3 12
2.11758e-22 3 13 -2.11758e-22 3 14 2.11758e-22 3 15 0
3 -5 0 2 -5 0 2 -5 0 2
-0.750281 -2.71051e-20 2.0005 -0.996618 -5.0822e-21 2.00034 -0.884887 3.38813e-21 2.25032 -0.750178
-2.73083e-17 2.25039 0.124965 6.77626e-21 2.00046 0.0589837 -3.38813e-21 2.00046 0.102874 -1.69407e-21
2.25032 0.249982 -1.24887e-17 2.25032 0.249997 1.35525e-20 2.00047 1.0005 1.35525e-20 2.00056
1.00037 1.35525e-20 2.25063 1.25045 -1.35525e-20 2.25054 1.25043 -1.69813e-17 2.00047 1.12546
-1.35525e-20 2.00051 2.00018 3.38813e-21 2.00013 2.00027 1.07133e-17 2.25026 2.25027 6.77626e-21
2.25023 2.25017 6.77626e-21 2.00011 3.5 0 2 3.00014 -1.11944e-17 2.00005
3.00014 2.41235e-17 2.25008 3.00001 2.0117e-21 2.49701 3.5 0 2 4
-1.32349e-23 2 4.00001 0 2.00871 4.5 -3.02248e-22 2.5 4.5 2.52435e-29
2.5 4.50017 2.11758e-22 2.00014 -5 0 4 -4.00035 0 4
-4.0004 -5.66496e-18 3.5 -4.00039 0 3 -4.5002 0 3 -5
-9.5459e-22 3 5 -8.47033e-22 3.5 5 2.1923e-22 4 5 1.90287e-22
4 6 4.23516e-22 4 7 0 4 8 0 4
9 4.23516e-22 4 10 0 4 11 2.11758e-22 4 12
2.11758e-22 4 13 0 4 14 2.11758e-22 4 15 0
4 -5 0 3 -5 0 4 -0.750077 -1.69407e-21 3.00019
-0.975165 6.35275e-22 3.00002 -0.50002 0 3.43551 -0.50014 0 3.00035 0.249985
0 3.00023 0.097637 1.69407e-21 3.00023 0.500042 3.38813e-21 3.26572 0.500014 0
3.00034 1.00005 -1.35525e-20 3.00048 1.00018 8.47033e-22 3.50026 1.50019 0 3.50023
1.50022 -1.55041e-17 3.00052 1.2501 0 3.00055 2.00039 0 3.00045 2.00025
6.77626e-21 3.50028 2.50024 -6.77626e-21 3.50026 2.50027 -2.15688e-17 3.00027 2.25034 0
3.00035 3.0002 -1.69407e-21 3.00018 3.00017 9.52404e-18 3.50018 3.50015 3.38813e-21 3.50016
3.50018 0 3.00016 4.00014 -6.90484e-17 3.50015 4.41401 8.47033e-22 3.50003 4.5
2.24255e-22 3 4.5 0 3 4.00015 0 3.00016 5 0
4 -5 -4.56216e-21 5 -4.00031 0 5 -3.00034 1.35525e-20 5.00001
-3.0004 2.50722e-18 4.5 -3.00052 0 4 -3.50051 -3.61446e-17 4 5
-5.3804e-23 4 4.5 0 4 4.01315 -1.98523e-22 4 6 -1.77009e-22
5 7 8.49641e-23 5 8 -2.44576e-22 5 9 -1.79481e-22 5
10 -8.26783e-24 5 11 3.71066e-23 5 12 7.40495e-23 5 13
-7.46022e-23 5 13 -3.57483e-23 5 14 -2.11758e-22 5 15 0
5 -5 1.00974e-28 5 0.5 0 4 0.499998 0 4
0.5 0 4 1 -1.61559e-27 4 1 -1.61559e-27 4 1.5
-5.24977e-23 4 1.5 0 4 2.00017 -3.38813e-21 4.00019 2 -4.13239e-17
4.5 2.5 0 4.5 2.50016 0 4.00018 3 0 4
3 2.76547e-17 4.5 3.5 -2.52435e-29 4.5 3.5 0 4 5
0 5 4 0 4 4 -3.3529e-17 4.5 4 1.26218e-29
5 6 3.15544e-30 5 7 0 5 8 0 5
9 3.9443e-31 5 10 0 5 11 -9.86076e-32 5 12
-4.93038e-32 5 13 1.2326e-32 5 -5 -1.50785e-21 6 -4.00028 0
6 -3 -2.11758e-22 6 -2 -2.11758e-22 5 -2.50019 3.01205e-17 5.00003
-2 0 6 -1 -2.35712e-17 5 -1.5 1.39417e-17 5 -1
8.47033e-22 6 -1.46255e-06 1.4195e-17 5 -0.500002 2.00704e-17 5 -4.41788e-07 4.23516e-22
6 1 1.75768e-17 5 0.499999 -4.03442e-18 5 1 0 6
2 -1.6111e-22 6 1.5 -2.46127e-23 5 14 -2.49584e-23 6 15
6.49997e-23 6 -5 0 6 2 -1.00974e-28 6 2 -6.34437e-17
5 1.5 4.03897e-28 5 3 5.04871e-29 6 3 -2.10964e-17 5
2.5 0 5 4 -1.26218e-29 6 3.5 2.52435e-29 5 5
-6.31089e-30 6 6 -3.15544e-30 6 7 1.57772e-30 6 8 7.88861e-31
6 9 -3.9443e-31 6 10 0 6 11 0 6
12 -2.46519e-32 6 13 1.2326e-32 6 14 0 6 15
-1.52652e-17 6 -5 -6.17313e-21 7 -4.00025 1.35525e-20 7 -3 6.2323e-23
7 -3 5.04871e-29 7 -3 1.09771e-22 7 -2 4.23516e-22 7
-1 -4.23516e-22 7 -6.20385e-08 0 7 1 0 7 2
0 7 -5 -2.52435e-29 7 -3 0 7 2 5.04871e-29
7 3 2.52435e-29 7 4 0 7 5 6.31089e-30 7
6 -3.15544e-30 7 7 0 7 8 3.9443e-31 7 9
0 7 10 -9.86076e-32 7 11 0 7 12 1.2326e-32
7 13 0 7 14 0 7 15 -1.08141e-17 7
-5 1.7064e-23 8 -4 0 8 -3 1.32733e-22 7 -3
0 8 -2 0 8 -1 -4.23516e-22 8 -4.65216e-09 0
8 1 0 8 2 0 8 -5 7.6473e-18 8
2 -2.52435e-29 8 3 0 8 4 0 8 5
-6.31089e-30 8 6 1.57772e-30 8 7 0 8 8 3.9443e-31
8 9 0 8 10 9.86076e-32 8 11 0 8
12 1.2326e-32 8 13 0 8 14 0 8 15
0 8 1.98072e-05 -1.47443e-18 0.0155232 -6.78597e-10 6.46235e-27 0 -0.015625 1.89557e-19
0 -0.015607 0 0.0155222 0.015625 6.46235e-27 0 0.984621 -2.64274e-19 1.00027
1.00023 6.77626e-21 1.00025 1.00022 0 0.984609 0.984609 0 0.984627 -0.875589
0 0.875281 -1.00051 0 0.875232 -0.000168606 -7.04731e-19 0.984785 -0.0157783 0
0.984748 -0.0157891 0 1.0004 0.984964 -4.87891e-19 0 0.984951 0 0.0152386
0.0154375 2.71051e-20 0.984823 0.500347 0 0 0.484697 -1.40946e-18 0 0.484699
-2.71051e-20 0.0154073 0.50035 2.71051e-20 0.0153902 6.85113e-05 -6.74075e-34 0.497067 0.00351742 0
0.497921 0.00351735 -6.16298e-33 0.497919 0.500935 -5.29396e-23 0.500103 0.500923 1.81265e-19 0.484474
0.485343 0 0.48448 0.485354 -5.29396e-23 0.500107 -1.0005 0 1.12529 -0.875598
0 1.12535 -0.847656 0 1.75035 -0.875511 -8.67701e-18 1.75034 -1.00046 8.00954e-18
1.75027 -1.00043 4.23516e-22 2.00034 -0.000137327 0 2.00046 -0.000174407 -6.77626e-21 1.87558
-0.125203 0 1.87555 -0.125185 -4.78404e-18 2.0005 1.00026 0 1.03153 0.969013
6.77626e-21 1.00028 0.969038 8.80914e-19 1.03156 0.0614109 0 1.87557 -0.0314004 0
1.00037 -0.0314207 0 1.03167 -0.750309 -7.75205e-18 1.87547 -0.750381 0 1.75039
0.124961 0 1.87556 1.00049 5.54298e-18 1.87554 0.875516 1.35525e-20 1.87556 0.875507
0 2.00058 -0.442444 -4.23516e-22 0.0622773 -0.437776 0 0.0622817 -0.437709 -2.11758e-22
0.0234443 -0.0040072 3.0527e-19 0.500638 -0.000168277 0 0.500646 -2.94017e-06 0 0.497049
-0.00322378 0 0.496279 -0.492468 -5.29396e-23 0.500175 -0.469803 -2.11758e-22 0.500181 -0.469837
0 0.468841 -0.501073 0 0.468827 -0.501061 2.64698e-23 0.480492 -0.000101869 -1.47052e-19
0.504366 -0.00397949 -2.01948e-28 0.504355 -0.501028 0 0.522018 -0.501022 0 0.531434
-0.469779 0 0.531436 0.00364412 0 0.500984 0.00375691 0 0.504522 0.485366
0 0.514811 0.485366 0 0.515734 0.500948 0 0.515729 0.500947 -1.65436e-24
0.515118 -0.500391 3.52366e-19 0.0622223 -0.437669 4.23516e-22 0 -0.500304 0 0
-0.501042 0 0.500173 -0.50037 -5.42101e-20 1.00067 -0.43782 0 1.00061 -0.437881
5.42101e-20 0.938131 -0.500433 0 0.93818 0.500963 -5.14996e-19 0.984633 0.485343 0
0.984612 0.485309 -1.35525e-20 1.00027 0.500901 2.71051e-20 1.00034 -2.0003 0 0
-2.00031 0 0.249984 -1.75035 -6.77626e-21 0.249978 -1.75034 -2.12097e-18 0 -1.12549
1.69407e-21 0.0567975 -1.12551 -3.38813e-21 0.124883 -1.1051 0 0.12486 -2.00053 -4.06576e-19
0.750021 -2.00052 0 1.00001 -1.75043 0 1 -1.75044 1.35525e-20 0.750004
1.03145 0 1.00022 1.03142 0 0.968935 1.0002 -6.77626e-21 0.968969 -1.12548
0 0 -1.12547 0 0.875178 -1.12544 0 1.00021 -0.562867 -4.63496e-18
0 -0.562923 0 0.0621015 -0.875622 1.40946e-18 0.499992 -0.875629 -1.40946e-18 0.43746
-0.875614 0 0.37493 -1.00058 -1.35525e-20 0.374847 -1.0006 -6.77626e-21 0.499982 -0.501071
0 0.459931 -0.501067 7.5513e-19 0.437262 -0.563478 0 0.437296 -0.563493 0
0.500081 1.875 7.07317e-18 0 1.875 0 0.125 2 -9.02096e-18 0.875
1.875 -1.00974e-28 0.875 1.875 0 1 -0.501021 2.64698e-23 0.532727 0.516516
0 0.515723 0.516516 -1.65436e-24 0.515322 -1.00059 3.04932e-18 0.625092 -0.875599 0
0.625021 -0.875605 0 0.562503 -0.563001 -5.42101e-20 0.938195 -0.562935 0 1.00068
-0.501004 6.60686e-20 0.562681 -0.563465 6.77626e-21 0.562645 0.515999 -2.71051e-20 0.0153741 0.515996
1.89735e-19 0 1.00002 0 0.499997 1.00004 6.91179e-19 0.484354 0.984415 3.38813e-21
0.484354 0.984397 0 0.499997 0.516504 -1.57919e-19 0.500096 0.516494 -4.23516e-22 0.484467
0.984397 0 0.515625 1.00002 0 0.515625 0.516455 3.25261e-19 1.00046 0.516567
-2.71051e-20 0.984687 -0.000486907 -2.11758e-22 0.751673 0.0150628 0 0.751704 0.0151069 -2.11758e-22
0.736039 -0.000466544 1.79846e-18 0.73608 0.250631 -1.05879e-22 0.499142 0.234996 0 0.4991
0.235042 0 0.51471 0.250685 1.77115e-18 0.514757 0.234396 1.59578e-18 0.751475 0.250021
2.64698e-23 0.751472 0.250098 0 0.735925 0.234416 0 0.735938 0.500674 0
1.03185 0.469677 2.71051e-20 1.00028 0.46947 -2.71051e-20 1.0318 -0.000487113 0 0.767278
0.0150573 0 0.767313 0.249988 1.48893e-23 0.985961 0.249988 0 0.985377 0.234363
0 0.98538 0.234363 8.27181e-25 1.00097 0.234889 9.09899e-24 1.00097 0.250006 2.3521e-18
0.76703 0.234384 0 0.767027 0.249988 -2.64698e-23 1.00096 0.250614 0 0.249941
0.237135 1.32349e-23 0.249938 0.250669 1.98523e-23 0.26291 0.484921 5.42101e-19 0.249634 0.484944
-5.42101e-20 0.265243 0.500584 0 0.265233 0.500562 5.42101e-20 0.249623 0.25266 0
[...]
POINT_DATA 9879
FIELD attributes 1
U 3 9879 float
24.607 -0.0023505 0.524913 25 0 0 25 0 0 24.3522 -0.034212
1.2072 24.0056 0.000631365 1.62966 25 0 0 24.607 -0.0023505 0.524913
24.6131 -0.00366689 0.540554 25 0 0 24.6199 -0.00407702 0.536669 25
0 0 24.6244 -0.00431569 0.52874 25 0 0 24.6289 -0.00451616
0.519746 25 0 0 24.634 -0.00464264 0.510091 25 0 0
24.6392 -0.00469877 0.500088 25 0 0 24.644 -0.00472406 0.490155 25
0 0 24.6492 -0.00472901 0.479128 24.6522 -0.00472651 0.472992 24.8595 -0.00792961
0.196146 25 0 0 25 0 0 25 0 0
25 4.39973e-13 -8.75315e-11 25 0 0 25 0 0 25.0003
3.91033e-06 -0.000777636 25.2115 -2.23561e-05 -0.08462 25.3147 -0.000382257 -0.12773 25 0
0 25 0 0 25.0037 -9.19127e-05 0.000226501 27.6345 -0.0625357 0.149395
27.589 -0.064721 0.159492 24.6648 -0.0683085 0.103056 24.712 -0.0779725 0.232492 24.7079
-0.0734255 0.22967 25 0 0 25 0 0 24.8707 -0.0684674
0.753412 24.8673 -0.0865381 1.67809 24.8199 -0.0912835 1.59902 25 0 0
25 0 0 24.8742 -0.085773 1.23004 24.3182 -0.0826528 2.84586 24.1371
-0.0316399 1.58959 25 0 0 25 0 0 25 0
0 25 0 0 24.201 -0.0376284 1.4822 24.201 -0.0376284 1.4822
24.607 -0.0023505 0.524913 24.0056 0.000631368 1.62966 24.607 -0.0023505 0.524913 24.8881
0.0123671 0.564842 24.8093 0.00499414 0.380918 24.7939 0.00528707 0.375273 24.7879 0.00551905
0.366105 24.7846 0.00562757 0.359558 24.7822 0.0056574 0.35519 24.7803 0.00568983 0.351984
24.7787 0.00567393 0.349592 24.7774 0.00562682 0.347619 24.7758 0.00559058 0.346981 24.7748
0.00557841 0.347307 25 0 0 25 0 0 25 3.01953e-13
-6.98479e-11 25 4.27221e-13 -1.11607e-10 24.8214 0.00220114 -0.093808 24.8205 0.0021106 -0.0745563
24.7457 0.00319943 -0.0827174 24.7421 0.00332415 -0.0990073 23.0971 0.0645597 2.06871 23.3014
0.057628 1.88011 23.2881 0.0617071 2.06456 23.08 0.0692028 2.28112 23.0702 0.0673954
2.19018 23.0196 0.07252 6.95072 23.1508 0.108579 8.71448 23.6378 0.173076 6.414
24.1612 0.133752 3.98304 23.9291 0.111441 3.99677 23.6393 0.0111597 2.35386 23.0824
0.00815878 5.28687 23.6453 0.0824156 4.17628 24.4906 0.0604746 2.19234 24.4109 0.0261126
1.55987 23.6669 0.00716431 2.26111 24.3415 0.0284778 1.54148 24.2954 0.0290334 1.53283
23.7099 0.00420363 2.19569 23.6669 0.00716431 2.26111 24.3565 0.0237891 1.31366 24.8881
0.0123671 0.564842 24.8881 0.0123671 0.564842 25.0232 0.00692875 0.297474 25.0225 0.00393393
0.165837 25.0183 0.00234402 0.118576 25.0149 0.00277148 0.110157 25.0132 0.00298745 0.107407
25.0111 0.00315202 0.106996 25.0085 0.00328038 0.107699 25.0055 0.0033875 0.109008 25.0024
0.0034104 0.11076 24.9995 0.00339937 0.112675 24.9969 0.00339722 0.115457 24.9957 0.00340023
0.117306 25 0 0 25 0 0 25 1.60733e-13 -2.74628e-11
24.8794 0.00113138 0.0559771 24.9071 0.000748662 0.0280641 24.92 0.00065513 0.0397937 24.9106
0.000780103 0.0514042 24.8114 0.00368696 0.277505 24.8142 0.0033849 0.25378 24.8771 0.00202502
0.18252 24.8787 0.00227551 0.208888 24.8221 0.00395946 0.305997 24.8844 0.00609934 0.464321
24.9163 0.00342176 0.312848 24.9281 0.00376039 0.336836 24.8993 0.00677534 0.500189 24.8902
0.00672318 0.498401 24.9138 0.00933963 0.612311 24.9486 0.00506575 0.409427 24.9561 0.00578806
0.437842 24.9251 0.010724 0.66789 24.9523 0.0119125 0.625811 24.9522 0.0152949 0.729358
24.9722 0.00912493 0.484407 24.9864 0.00529792 0.330606 24.9523 0.0119125 0.62581 24.9418
0.0138275 0.623112 24.9431 0.0136951 0.617839 25.0238 0.00745624 0.327184 25.0238 0.00745624
0.327184 24.9276 0.0153166 0.639083 25 1.09735e-13 5.94076e-12 24.9992 7.70717e-06 0.000420152
24.9989 9.3053e-06 0.000159566 24.9988 9.58573e-06 -0.000254374 24.9996 4.26274e-06 -0.000208201 25
1.40742e-13 -6.83806e-12 25.0216 0.00231636 0.105035 25.0217 0.00124488 0.0660854 25.0217 0.00124488
0.0660854 25.0257 0.00133128 0.0593066 25.0286 0.00144677 0.0599929 25.0299 0.00153979 0.0609218
25.0301 0.00160086 0.0612026 25.0298 0.00164201 0.0610297 25.0294 0.00167246 0.0608342 25.0291
0.00169866 0.0607096 25.0288 0.00171978 0.060698 25.0287 0.00172903 0.0607068 25.0288 0.00173011
0.0606726 25 0 0 25 0 0 24.9591 0.000315371 0.0351079
24.9651 0.00024532 0.0260486 24.9734 0.000235488 0.0342493 24.9566 0.000382388 0.045953 24.9513
0.000705465 0.0911749 24.9521 0.000621491 0.0803539 24.9676 0.000560709 0.0811808 24.9566 0.000768867
0.10199 24.9663 0.000953988 0.12584 24.9828 0.00046909 0.0762646 24.9899 0.000547144 0.0867428
24.9773 0.00113642 0.143997 24.9705 0.00110333 0.141204 24.9866 0.00133783 0.158644 24.9967
0.000640058 0.0946719 25.0028 0.00075124 0.100972 24.9941 0.00159483 0.166772 24.9893 0.00157908
0.171338 25.003 0.00194752 0.174367 25.009 0.000959222 0.106454 25.0149 0.0011906 0.109708
25.013 0.00250069 0.181916 25.0188 0.00147904 0.109344 25.0202 0.00197094 0.110468 25.0221
0.00412833 0.183504 25.0221 0.00412833 0.183504 25.0196 0.00305776 0.182282 25.0217 0.00124488
0.0660854 25 5.96484e-14 6.90283e-12 24.9996 6.25316e-06 0.000726432 24.9988 1.46104e-05 0.00203935
24.9979 1.78341e-05 0.00230927 24.997 2.0716e-05 0.00193908 24.9983 1.33437e-05 0.000836532 25.0217
0.00124488 0.0660854 25.0201 0.0011792 0.0750061 25.0185 0.000811708 0.0710709 25.0242 0.000530822
0.0291339 25.0261 0.000660501 0.0279789 25.0271 0.000759975 0.026542 25.0276 0.000832829 0.0251845
25.0281 0.000887916 0.0241243 25.0284 0.000928742 0.0234708 25.0287 0.000962937 0.0231574 25.029
0.000987717 0.0230578 25.029 0.000987717 0.0230578 25.0296 0.00100242 0.0231473 25.03 0.00100837
0.0232358 25 0 0 24.9881 0.000226127 0.0426317 24.9881 0.000226126 0.0426317
24.9881 0.000226126 0.0426317 24.992 0.000278347 0.0511078 24.992 0.000278346 0.0511077 24.9969
0.00032188 0.0578756 24.9969 0.00032188 0.0578756 25.0021 0.000374809 0.0628857 25.0051 0.000234472
0.0422448 25.009 0.0002724 0.0445221 25.007 0.000431666 0.0666065 25.0115 0.000528293 0.0690893
25.0124 0.00032059 0.0458168 25.0155 0.000409135 0.0468554 25.0155 0.000657692 0.0707381 25.0212
0.000377006 0.0296303 25.0185 0.000801784 0.0709647 25.0176 0.000453283 0.0455763 25.0175 0.000286871
0.0308573 25.0242 0.000530822 0.0291339 25.0261 0.000660501 0.0279789 25.0271 0.000759975 0.026542
25.0276 0.000832829 0.0251845 25.0281 0.000887916 0.0241243 25.0284 0.000928742 0.0234708 25.0287
0.000962937 0.0231574 25.029 0.000987717 0.0230578 25 2.47291e-14 2.98106e-12 24.9999 5.17488e-06
0.000625839 24.9997 1.13966e-05 0.00156563 24.9974 2.84091e-05 0.00485212 24.9979 2.11713e-05 0.00323427
24.9997 1.972e-05 0.00319295 24.9964 5.01146e-05 0.00986001 24.9965 3.9401e-05 0.00722397 25.0002
3.08325e-05 0.00569313 24.9972 8.09279e-05 0.0169866 24.996 6.73101e-05 0.0137374 25.0017 4.48749e-05
0.00881548 25.001 0.00011686 0.0241481 24.9982 0.000103998 0.0217822 25.0047 6.11591e-05 0.0117995
25.0087 7.95988e-05 0.0138981 25.0035 0.0001425 0.0284689 25.0291 0.000481088 0.0128689 25.0293
0.000486785 0.0129269 25 0 0 25.0087 7.95988e-05 0.0138981 25.0069 0.000154694
0.0290358 25.0035 0.0001425 0.0284689 25.0131 0.000102357 0.0148971 25.0128 0.00020789 0.031391
25.0099 0.000188098 0.0322469 25.017 0.000135253 0.0150917 25.0154 0.000271923 0.0335484 25.0202
0.00018369 0.0149139 25.0227 0.000245026 0.014407 25.0246 0.000307862 0.0136617 25.0259 0.000357287
0.013073 25.0268 0.000390938 0.012767 25.0276 0.000415807 0.0126408 25.0281 0.000434843 0.0126226
25.0285 0.000453215 0.0126749 25.0288 0.000469321 0.0127614 25.0291 0.000481088 0.0128689 25.0293
0.000486785 0.0129269 25 9.73323e-15 7.58458e-13 25.0001 4.52274e-06 0.000353519 25.0002 9.66682e-06
0.000837833 25.0002 9.66682e-06 0.000837833 25.0002 9.66682e-06 0.000837833 25.0006 1.60115e-05 0.00159988
25.0016 2.39229e-05 0.00269038 25.0033 3.35477e-05 0.00400443 25.0059 4.47046e-05 0.00526392 25.0093
5.72528e-05 0.00616324 25 0 0 25.0002 9.66682e-06 0.000837833 25.0093 5.72528e-05
0.00616324 25.0129 7.22606e-05 0.00658886 25.0164 9.17841e-05 0.00666565 25.0194 0.00011731 0.00652527
25.0218 0.000148824 0.00622482 25.0237 0.000181131 0.00588863 25.025 0.00020859 0.0056064 25.026
0.000230053 0.00537238 25.0268 0.00024807 0.00515285 25.0273 0.000263768 0.00496151 25.0277 0.000277813
0.00481518 25.0281 0.000289894 0.00471295 25.0286 0.000299653 0.00465118 25.0289 0.00030451 0.00462453
25 1.05946e-06 0 25.0001 4.31833e-06 0 25.0002 9.66682e-06 0.000837833 25.0003
9.11747e-06 0 25.0009 1.48996e-05 0 25.0019 2.19425e-05 0 25.0037 3.04028e-05
0 25.0062 4.01923e-05 0 25.0094 5.12666e-05 0 25 1.05946e-06 0
25.0094 5.12666e-05 0 25.0129 6.41873e-05 0 25.0162 8.03852e-05 0 25.0191
0.000100458 0 25.0215 0.000124198 0 25.0233 0.000148415 0 25.0247 0.00016987
0 25.0257 0.000187273 0 25.0265 0.000201706 0 25.0271 0.000213759 0
25.0276 0.000223902 0 25.028 0.00023226 0 25.0284 0.000238626 0 25.0287
0.000241801 0.00110507 27.6346 -0.0625309 0.149374 25 0 0 25 0
0 27.6736 -0.0602955 0.13883 25 0 0 24.1263 0.189151 5.43773
24.023 0.189313 5.39223 23.7042 0.203055 5.61576 23.8469 0.200965 5.63552 24.7488
0.00358294 -0.155936 24.8363 0.00227046 -0.13276 22.9851 0.0682092 2.1693 23.0003 0.0657364
2.05738 23.0947 0.0627447 1.97821 25 0 0 24.6684 -0.068807 0.103951
22.9736 0.070677 2.28225 25 0 0 25 0 0 25.3819
-0.0901695 0.193438 25.331 -0.089807 0.189687 22.161 0.0468051 4.99411 22.6878 0.0469991
5.27179 22.6872 0.0469978 5.27192 23.431 -0.204302 11.2575 23.5271 -0.228616 10.8125
23.5768 -0.219836 10.9109 23.4792 -0.194533 11.3445 24.8198 0.00204131 -0.0597686 24.7524
0.00297111 -0.0527051 24.8511 0.00139522 0.0398957 24.8558 0.00132354 0.0344887 24.8815 0.00101048
0.0192457 24.9076 0.000742928 0.0276317 24.8167 0.00311693 0.232519 24.7744 0.00413061 0.282855
24.7792 0.00356144 0.234276 24.8142 0.00282268 0.20065 24.3122 0.16227 4.88017 24.1988
0.183684 5.36758 24.3454 0.156605 4.79728 24.7748 0.00442504 0.306746 23.1276 0.0599696
1.86188 23.3258 0.0536295 1.69978 24.8566 0.00138676 0.0611038 24.8345 0.00164891 0.0587754
24.7753 0.00473269 0.33139 24.8636 0.00831646 0.57739 24.852 0.00786152 0.553828 24.8716
0.00603625 0.459464 26.4753 -0.0104493 -0.229184 26.4967 -0.0106955 -0.230663 25.5634 -0.00402761
-0.086827 22.6842 0.0480615 4.46035 23.1825 0.0488089 4.74777 22.1501 0.0468012 4.98836
21.6558 0.0464851 4.7453 24.4402 0.0102609 -1.30832 24.3474 0.010722 -1.45168 24.5936
0.00826725 -1.55138 24.6632 0.00814053 -1.3607 24.5933 0.00886465 -1.32102 23.6216 0.0425729
4.17083 23.0433 0.0410618 3.86185 24.3365 0.011566 -1.20271 24.2766 0.0122038 -1.18057
24.1376 0.0130951 -1.32188 23.7201 0.0493959 5.02921 24.2415 0.0439989 4.53053 23.3981
-0.164596 11.7044 23.393 -0.162717 11.7269 23.347 -0.172693 11.6535 23.3503 -0.173928
11.6381 26.2098 -0.00737676 -0.210819 25 0 0 25 0 0
24.4754 0.0100865 -1.25409 24.2291 0.0131932 0.069799 24.0897 0.0166169 0.163759 23.9711
0.0191665 0.116257 24.1475 0.0149973 0.016056 24.023 0.128994 4.77109 23.9889 0.127567
4.74178 24.0162 0.121794 4.52474 24.0532 0.122422 4.51522 25 0 0
25.0163 7.44352e-05 -0.0121188 25.0275 0.00011188 -0.0209039 25 0 0 25.0677
4.27842e-05 -0.0256223 25.149 9.40388e-05 -0.0563366 25.1592 7.53062e-05 -0.0609558 24.9959 0.000135099
-0.0250569 24.9859 0.000160437 -0.0238689 24.9752 0.000275827 -0.0348484 24.9909 0.000233209 -0.0390383
23.7006 0.194814 5.40492 22.5277 0.220946 5.77665 22.9065 0.215926 5.74883 25
0 0 24.8912 0.00148724 -0.108679 24.8753 0.00148553 -0.0834995 25 0
0 25.9748 -0.00497096 -0.18222 24.9723 0.00239936 -0.311111 25.0383 0.00197297 -0.322193
25.1065 0.00138342 -0.298203 25.0842 0.000911672 -0.199978 24.999 0.00146745 -0.214499 24.7283
0.00756659 -1.35995 24.894 0.00610386 -1.35807 24.9427 0.00568478 -1.01603 24.6578 0.00839991
-0.955624 25 0 0 24.8403 -0.0693117 0.782761 23.0578 -0.0313237 10.1999
23.0712 -0.0331828 10.7812 23.1612 0.136024 9.32114 24.2719 0.0122666 -1.17462 23.305
-0.183048 11.5812 23.3072 -0.183844 11.5707 24.9239 0.0019181 -0.202328 24.86 0.00316869
-0.279797 24.9051 0.00295341 -0.30975 24.2985 0.0116672 -0.0493186 24.3524 0.0104075 0.00554569
24.1623 0.0137245 -1.03677 24.4302 0.0108197 -0.824903 25.2827 -0.089395 0.185913 25
0 0 23.6699 -0.313564 7.63452 23.7787 -0.297576 7.14906 23.7478 -0.301613
7.2429 23.6321 -0.318181 7.74873 23.3878 -0.214063 11.1709 23.483 -0.237292 10.7142
23.5066 -0.333874 8.28639 23.5411 -0.330362 8.17908 24.0796 0.125462 4.5802 24.055
0.130799 4.79891 20.1237 0.0982493 3.85359 20.0451 0.101309 4.14081 19.7463 0.0990459
4.22604 19.8352 0.0961434 3.9264 25.7473 -0.0976444 13.334 26.1277 -0.0954216 13.4791
26.0336 -0.0817789 14.0922 25.5959 -0.0824443 13.8794 20.8664 0.150469 9.12209 21.1537
0.153874 9.3567 20.9574 0.150957 9.96507 20.5844 0.147259 9.67749 24.1091 0.109054
4.04116 23.9862 0.11954 4.45542 24.0485 0.106588 3.98375 20.4045 0.0996662 3.76868
20.3349 0.102842 4.04209 23.2971 0.103201 3.89689 23.294 0.103414 3.90513 23.2476
0.101476 3.81627 23.3207 0.0967647 3.63328 23.3226 0.0967974 3.63502 21.3617 0.156184
8.82292 21.1229 0.152746 8.60749 23.3762 0.0977365 3.68502 26.6285 -0.155208 4.78764
26.7595 -0.153457 4.79143 26.6143 -0.161058 5.14287 25.1152 -0.165679 4.0587 25.0488
-0.175593 4.4063 24.9946 -0.175023 4.33428 25.0612 -0.165067 3.99287 26.5919 -0.162514
5.21336 26.458 -0.164302 5.19909 26.483 -0.156958 4.77442 24.5345 0.0110898 0.56287
24.4621 0.0133767 0.645151 24.47 0.0120815 0.566943 24.5306 0.0103688 0.508969 24.6323
0.00559925 0.219711 24.6297 0.00566674 0.223684 24.527 0.00766218 0.25728 24.5396 0.00729912
0.23412 24.5232 0.0124548 0.64097 24.4609 0.0146843 0.723918 24.6424 0.0186649 1.01289
24.5985 0.023029 1.18517 24.571 0.0219946 1.13634 24.613 0.0183947 0.994049 24.3066
0.0115242 0.10938 24.1964 0.0143132 0.195218 24.68 0.00433699 0.145975 24.5575 0.00677848
0.201315 24.6038 0.00569756 0.152346 29.576 -0.106032 3.58774 29.3337 -0.102701 3.25367
29.4642 -0.0982807 3.01955 29.7275 -0.101377 3.33056 19.1444 0.0102663 -5.22399 19.2156
0.0124944 -4.49436 18.5314 0.0133487 -4.3449 18.2773 0.0112023 -5.12547 28.4451 -0.0319364
-0.99597 28.7344 -0.0316841 -1.41135 29.3603 -0.0395284 -1.0112 28.9165 -0.0391391 -0.662925
25.945 -0.00337603 -1.42779 25.9845 -0.00378103 -1.45334 26.0236 -0.00416921 -1.42412 19.8536
0.0118308 -4.50359 19.9114 0.00951146 -5.16846 27.9644 -0.0256408 -1.19972 28.1097 -0.0249314
-1.62732 20.2041 0.0951494 3.58136 19.9262 0.0932308 3.64184 19.3156 0.014545 -3.90592
18.7478 0.0153633 -3.72248 19.8517 0.0138693 -3.98111 29.1869 -0.107016 3.4703 29.4087
-0.11055 3.82358 25.9105 -0.113892 12.7922 26.2606 -0.110814 12.8989 26.6114 -0.162253
5.21544 26.7799 -0.153184 4.79202 26.7718 -0.159965 5.22235 25.4153 -0.100541 13.1726
25.5913 -0.117673 12.6621 17.1216 0.0656874 3.93992 17.498 0.0692406 3.95869 17.3555
0.0719014 4.30628 17.0158 0.0685561 4.27755 17.047 0.0668006 4.11672 28.9377 -0.0984672
13.3975 28.868 -0.0988777 13.2847 27.99 -0.0953645 13.1658 28.4022 -0.0949875 13.4366
15.8422 0.0955788 6.88001 15.6049 0.0945757 6.76004 15.8111 0.092499 6.58089 16.022
0.0935377 6.6759 25.2246 -0.0839128 13.661 19.6634 0.200876 8.75049 19.6905 0.198464
8.79574 19.853 0.181575 9.26456 19.6382 0.182749 9.14135 21.4821 0.157497 9.58218
21.2654 0.154725 10.165 25.9302 -0.00350792 -0.890994 25.6821 -0.00085117 -1.14321 25.7795
-0.00168 -1.32083 26.1883 -0.00580218 -1.30122 26.2739 -0.00681707 -1.10141 22.1068 0.0526574
0.553807 21.8246 0.0587515 0.824926 21.5153 0.0575408 0.714478 21.8465 0.0518815 0.419576
23.5957 0.0247929 -0.270795 23.5205 0.0240183 -0.54402 23.9202 0.0181612 -0.53123 23.9335
0.0186151 -0.332685 22.1776 0.0464388 0.176676 22.3897 0.0469688 0.328514 19.3334 0.121268
6.73417 19.7376 0.124404 6.51314 19.7773 0.128139 6.90911 19.3549 0.124951 7.16928
17.6954 0.0903902 13.8731 18.3366 0.104355 15.0534 18.6467 0.124409 15.6689 18.0877
0.114989 14.4085 15.6352 0.0976373 7.09817 16.0697 0.0967175 6.9807 15.8734 0.0987595
7.21667 20.4759 0.0965008 3.50885 23.5933 0.0319824 0.692295 23.5109 0.0354683 0.822589
23.3633 0.0389302 0.860059 23.4594 0.0350858 0.715191 22.356 0.0521458 0.647584 22.1139
0.0581346 0.898773 29.1446 -0.101554 13.2526 29.2288 -0.1026 13.2101 31.8163 -0.114139
6.83491 32.2052 -0.112319 7.4849 31.7441 -0.115753 7.84586 31.4047 -0.118131 7.19406
28.8323 -0.144685 9.1994 28.7437 -0.149103 8.58807 29.088 -0.144498 8.4811 29.2002
-0.14026 9.09909 23.4073 0.100366 3.79561 23.4081 0.10044 3.79874 23.342 0.105295
3.98968 19.8855 0.215518 8.45058 20.0116 0.218097 8.4677 21.6121 0.15952 9.00584
28.9077 -0.098133 13.4906 28.583 -0.094805 13.6206 17.6367 0.0670041 13.5442 18.0666
0.0792442 14.3744 15.3681 0.096703 6.93775 19.3078 -0.110699 9.16425 19.3079 -0.110699
9.16425 22.632 -0.11378 10.7529 24.3659 -0.112576 11.3528 23.648 -0.115624 10.9395
31.21 0.0678022 14.3735 30.7475 0.0708241 14.8882 29.8618 0.0673002 14.2901 30.7469
0.066761 14.0783 17.3364 0.078987 13.0753 17.5615 0.102061 13.3406 20.8197 0.198354
9.16126 20.0466 0.200013 9.32326 20.1744 0.196022 9.38985 21.0822 0.190668 9.28841
22.4466 0.0351647 12.876 21.9496 0.0335033 12.8283 20.5115 0.0587836 11.9412 21.3632
0.0553609 12.2314 19.3078 -0.110699 9.16424 17.9033 0.147069 10.5413 16.8294 0.152515
9.95891 15.3156 0.155661 9.76622 15.4377 0.152009 9.69211 17.8556 0.124115 9.89177
18.0152 0.126279 10.3431 17.527 0.124432 10.6181 17.382 0.122171 10.0876 25
0 0 25 0 0 26.5306 -0.0867881 0.228941 26.4447 -0.0876847
0.228673 26.6385 -0.148051 4.38005 26.7681 -0.146424 4.38208 25.3741 -0.00443255 -0.00771502
25.9562 -0.0121974 -0.00634257 25 0 0 25 0 0 29.1218
-0.099219 2.94798 29.2346 -0.095034 2.73522 28.2032 -0.0317637 -0.695407 28.5657 -0.0383277
-0.421887 28.9935 -0.103315 3.1462 26.7824 -0.146246 4.3823 27.4445 -0.0289677 -0.0504186
27.5786 -0.0328939 -0.0171045 25.0486 -0.000534443 -0.00166701 25 0 0 26.4095
-0.00874907 -0.758932 26.4113 -0.00877337 -0.754619 26.0808 -0.00528956 -0.650952 26.0804 -0.00528407
-0.651692 27.8261 -0.025955 -0.877772 17.6592 0.0668743 3.58411 17.1446 0.0640895 3.73778
17.2513 0.0631037 3.52118 16.8613 0.0336273 1.25197 16.8775 0.032741 1.06455 17.037
0.0333261 1.05099 17.0208 0.0342182 1.22349 18.8481 0.0512239 1.35997 19.1132 0.0548379
1.46469 18.914 0.0563771 1.71795 18.6476 0.0526041 1.60831 19.0522 -0.112298 8.93725
23.1599 -0.117411 10.6378 27.2858 -0.0251501 -0.0784336 23.5588 0.0315701 0.585502 23.6781
0.0288606 0.575742 23.988 0.0180245 -0.176348 23.7136 0.0237745 -0.088117 22.5972 0.046523
0.433461 19.0521 -0.112298 8.93725 17.8696 0.0731021 3.99755 17.7189 0.0756032 4.34313
19.732 0.120833 6.13326 19.3499 0.117821 6.31915 16.2337 0.0947027 6.76039 20.1308
0.139444 8.12702 20.3398 0.143163 8.50075 19.9606 0.140147 8.98542 19.7175 0.136373
8.55528 18.7758 0.148526 10.6154 19.4934 0.143854 11.1132 18.2535 0.12611 9.68321
18.4095 0.128147 10.0582 20.1077 0.126618 6.27422 20.1568 0.130404 6.63616 22.439
0.139286 5.74614 22.5362 0.142157 5.88606 22.4003 0.146945 6.23866 22.2918 0.143949
6.08945 21.7627 0.121176 4.7592 21.9642 0.118027 4.51747 22.0037 0.121155 4.71084
21.8062 0.124576 4.96934 29.0124 -0.1004 13.2845 26.4248 -0.188263 8.79608 26.6695
-0.183106 8.83226 26.6367 -0.179221 9.41305 26.3783 -0.18473 9.37086 28.4098 -0.153676
8.68212 28.4778 -0.149155 9.28762 17.5485 0.0591557 13.0726 23.8943 -0.109981 12.4034
24.0296 -0.13556 12.0587 24.1559 -0.12889 12.1916 24.009 -0.104623 12.5401 22.9695
0.0198342 13.1457 22.7696 0.017014 13.251 17.3643 0.104833 7.22418 17.8954 0.108927
7.18897 17.7889 0.112453 7.74635 17.469 0.110669 7.83989 17.1594 0.108611 7.79914
17.2121 0.106393 7.50349 17.751 0.122009 9.45487 17.3058 0.120031 9.59785 25.6812
-0.112812 11.6689 26.408 -0.109386 12.0747 29.0392 -0.124797 11.1179 29.4468 -0.122255
11.0517 29.4594 -0.114594 11.6882 29.0428 -0.116749 11.7508 30.8755 -0.114289 10.7474
30.9561 -0.110632 11.1343 30.6671 -0.11229 11.1836 30.6222 -0.115445 10.866 23.8578
-0.0415243 15.045 23.6103 -0.0397621 15.096 21.4928 -0.0136143 14.6692 22.063 -0.0201989
14.7002 22.5022 -0.0129963 14.1132 22.5776 0.0158167 14.6255 21.9264 0.00262726 14.4215
22.4294 -0.0199034 14.303 26.5224 -0.0971294 12.5568 27.7582 -0.0985726 12.927 27.4598
-0.0988818 12.9133 25.8031 -0.0987578 12.4197 31.4288 0.0484417 9.62103 31.371 0.049368