# vtk DataFile Version 2.0
sampleSurface
ASCII
DATASET POLYDATA
POINTS 9400 float
2.60369e-12 7.88861e-31 0 2.60369e-12 7.88861e-31 0.01875 -0.0625 0 0 0.0625 0
0 -0.0625 2.04574e-18 0.01875 0.0625 2.27264e-18 0.01875 2.45838e-12 -7.88861e-31 0.0805546
0.0625 0 0.080548 -0.0625 0 0.0805619 -0.125 0 0 0.125
0 0 -0.125 0 0.01875 0.125 0 0.01875 2.44092e-12 0
0.142361 0.125 -2.36236e-18 0.080537 -0.125 -1.99734e-18 0.0805727 0.155198 9.86076e-32 0
0.0625 2.25713e-18 0.142348 -0.0625 6.58074e-19 0.142376 0.155198 9.86076e-32 0.01875 -0.1875
0 0 0.1875 -1.97215e-31 0 0.17003 9.86076e-32 0.0805311 -0.1875 6.18262e-19
0.01875 0.1875 1.13376e-18 0.01875 0.125 0 0.142327 -0.125 -1.57772e-30 0.142397
0.1875 0 0.0805288 -0.1875 1.57772e-30 0.0805786 2.55289e-12 4.58002e-19 0.20417 0.0625
0 0.204149 -0.0625 0 0.204193 0.182675 -2.46519e-32 0.142311 0.1875 -2.46519e-32
0.14231 -0.1875 3.44655e-18 0.142409 0.125 1.8947e-18 0.20412 -0.125 8.62579e-19 0.204222
-0.25 0 0 0.25 0 0 -0.25 0 0.01875 0.25
0 0.01875 0.1875 0 0.171657 0.25 -1.85988e-18 0.0805215 -0.25 -7.89071e-19
0.0805852 2.80171e-12 0 0.265981 0.0625 -3.12196e-18 0.265952 -0.0625 0 0.266014
0.1875 0 0.204094 -0.1875 1.57772e-30 0.204241 0.192183 0 0.204092 0.25
0 0.142295 -0.25 0 0.142423 0.125 3.9443e-31 0.265926 -0.125 0
0.266049 -0.3125 1.57772e-30 0 0.3125 7.88861e-31 0 -0.3125 -2.90674e-18 0.01875
0.3125 -1.27488e-19 0.01875 0.3125 0 0.0805151 0.25 0 0.20407 -0.3125
0 0.0805924 -0.25 0 0.204262 0.1875 0 0.26588 -0.1875 5.62479e-19
0.266075 3.20058e-12 0 0.327795 0.199338 -9.86076e-32 0.265874 0.0625 0 0.327757
-0.0625 0 0.327848 0.3125 -2.71896e-18 0.142282 -0.3125 2.78209e-18 0.142437 0.125
6.9163e-19 0.327724 -0.125 2.08789e-18 0.327878 0.25 0 0.265848 -0.25 0
0.266105 0.3125 0 0.204049 -0.3125 0 0.204285 -0.375 0 0
0.375 0 0 -0.375 0 0.01875 0.375 0 0.01875 0.1875
0 0.32767 -0.1875 0 0.327912 0.375 -8.46552e-19 0.0805098 -0.375 -8.58061e-19
0.0806002 0.205871 0 0.327658 3.76968e-12 0 0.389612 0.0625 3.97291e-19 0.389565
-0.0625 2.2957e-18 0.389672 0.375 0 0.14227 -0.375 0 0.142454 0.125
0 0.389523 -0.125 0 0.389709 0.3125 0 0.265819 -0.3125 0
0.266137 0.25 -1.46378e-18 0.327628 -0.25 3.03983e-18 0.32795 0.375 0 0.204032
-0.375 2.41679e-18 0.20431 0.1875 -1.87127e-18 0.389464 -0.1875 3.73964e-19 0.389752 -0.4375
0 0 0.4375 0 0 -0.4375 1.89554e-18 0.01875 0.4375 -2.57557e-18
0.01875 0.213183 0 0.389442 0.4375 1.57772e-30 0.0805056 -0.4375 0 0.0806086
4.53883e-12 -3.03619e-18 0.451433 0.3125 0 0.32759 -0.3125 0 0.327991 0.0625
0 0.451375 -0.0625 1.57772e-30 0.451497 0.375 0 0.265795 -0.375 -1.57772e-30
0.266171 0.4375 3.41059e-18 0.142262 -0.4375 -9.03976e-19 0.142471 0.25 0 0.389411
-0.25 0 0.389799 0.125 -2.36403e-18 0.451324 -0.125 -5.90775e-19 0.451542 0.4375
0 0.204018 -0.4375 0 0.204337 0.1875 0 0.451262 -0.1875 0
0.451594 0.375 1.63705e-18 0.327558 -0.375 3.27259e-18 0.328036 0.3125 0 0.389363
-0.3125 -1.14983e-18 0.38985 -0.5 0 0 0.5 1.57772e-30 0 -0.5
0 0.01875 0.5 1.57772e-30 0.01875 0.222412 0 0.451226 0.5 2.84117e-18
0.0805025 -0.5 2.92717e-18 0.0806173 0.4375 -2.12621e-18 0.265775 -0.4375 -1.47432e-18 0.266207
5.55162e-12 1.57772e-30 0.513258 0.25 0 0.451197 -0.25 0 0.451651 0.0625
0 0.513189 -0.0625 4.3536e-19 0.513324 0.5 1.57772e-30 0.142255 -0.5 0
0.142489 0.125 0 0.513128 -0.125 0 0.513378 0.5 -1.57772e-30 0.204008
-0.5 3.15544e-30 0.204364 0.375 1.57772e-30 0.389324 -0.375 0 0.389905 0.1875
0 0.513077 0.4375 0 0.327533 -0.1875 0 0.51344 -0.4375 0
0.328082 0.3125 0 0.451139 -0.3125 3.15544e-30 0.451713 -0.5625 6.31089e-30 0
0.5625 3.15544e-30 0 -0.5625 -1.00175e-18 0.01875 0.5625 -2.39654e-18 0.01875 0.23435
0 0.513009 0.5 0 0.265761 -0.5 3.15544e-30 0.266245 0.5625 0
0.0805006 -0.5625 -6.31089e-30 0.0806264 0.25 0 0.512987 -0.25 0 0.513508
6.87235e-12 -3.15544e-30 0.5751 0.0625 0 0.575006 -0.0625 0 0.575154 0.5625
-3.18176e-18 0.142251 -0.5625 2.78172e-19 0.142507 0.4375 -3.799e-19 0.389292 -0.4375 4.15711e-19
0.389963 0.375 -3.25704e-18 0.451091 -0.375 -1.7012e-18 0.45178 0.125 3.22891e-18 0.574935
-0.125 2.76461e-18 0.575218 0.5 1.53587e-19 0.327515 -0.5 1.56796e-18 0.328131 0.5625
-3.15544e-30 0.204002 -0.5625 0 0.204393 0.3125 -3.04445e-18 0.512918 -0.3125 -1.22914e-18
0.513582 0.1875 -7.88861e-31 0.574873 -0.1875 3.15544e-30 0.57529 0.5625 0 0.265753
-0.5625 0 0.266284 -0.625 0 0 0.625 0 0 -0.625
0 0.01875 0.625 0 0.01875 0.249434 0 0.574782 0.25 -2.35481e-18
0.574782 -0.25 2.86973e-18 0.57537 0.25 0 0.576361 0.4375 0 0.451052
-0.4375 0 0.451849 0.625 -4.13928e-19 0.0805 -0.625 1.78069e-18 0.0806358 0.5
-3.15544e-30 0.389269 -0.5 0 0.390023 0.375 0 0.512859 -0.375 0
0.51366 8.59817e-12 0 0.636923 0.0625 -4.29693e-19 0.636828 -0.0625 2.53227e-18 0.636986
0.625 0 0.14225 -0.625 0 0.142527 0.125 0 0.636744 -0.125
0 0.63706 0.5625 0 0.327504 -0.5625 0 0.328182 0.3125 7.88861e-31
0.5747 -0.3125 0 0.575456 0.625 -2.48369e-18 0.204 -0.625 2.63567e-18 0.204423
0.1875 -2.99188e-18 0.636672 -0.1875 1.69459e-18 0.637144 0.5 -3.15544e-30 0.451023 -0.5
6.31089e-30 0.451922 0.4375 0 0.512812 -0.4375 0 0.513742 0.625 0
0.26575 -0.625 0 0.266325 0.25 0 0.636581 0.5625 -2.7276e-18 0.389255
-0.25 0 0.637237 -0.5625 -2.95645e-18 0.390085 0.375 -2.32583e-18 0.57463 -0.375
-1.63671e-19 0.575547 -0.6875 0 0 0.6875 0 0 -0.6875 7.54477e-19
0.01875 0.6875 2.80491e-18 0.01875 0.265822 0 0.636557 0.6875 0 0.0804911
-0.6875 2.52435e-29 0.0806455 1.08822e-11 3.25112e-18 0.698748 0.0625 -3.15544e-30 0.698655 -0.0625
0 0.698821 0.6875 0 0.142233 -0.6875 -5.02969e-19 0.142546 0.625 0
0.3275 -0.625 -2.67663e-18 0.32822 0.3125 2.79272e-18 0.636486 0.125 2.61292e-18 0.698557
-0.3125 -2.72054e-18 0.637337 -0.125 2.93961e-18 0.698907 0.5 -3.15544e-30 0.512778 -0.5
0 0.513828 0.6875 0 0.203976 -0.6875 0 0.204444 0.5625 0
0.451006 -0.5625 0 0.451996 0.4375 0 0.574574 -0.4375 0 0.575643
0.1875 0 0.698474 -0.1875 -6.31089e-30 0.699004 0.625 0 0.38925 -0.625
1.26218e-29 0.390123 0.6875 2.67855e-18 0.26572 -0.6875 3.2715e-19 0.266348 0.375 0
0.636404 -0.375 0 0.637442 0.25 -2.90235e-18 0.698407 -0.25 0 0.699111
-0.75 5.04871e-29 0 0.75 0 0 -0.75 5.04871e-29 0.01875 0.75
0 0.01875 0.75 0 0.0804865 -0.75 0 0.0806519 0.285281 3.9443e-31
0.698333 1.39788e-11 -6.31089e-30 0.760575 0.5625 -5.36693e-20 0.512757 0.6875 0 0.327466
0.5 -2.55668e-18 0.574533 -0.6875 0 0.328255 -0.5625 0 0.513884 -0.5
2.53415e-18 0.575741 0.0625 0 0.760507 -0.0625 -1.16387e-18 0.76066 0.75 0
0.142224 -0.75 0 0.142557 0.3125 0 0.698276 -0.3125 0 0.699225
0.125 0 0.760375 0.625 1.75231e-18 0.451 -0.125 -6.31089e-30 0.760759 -0.625
-3.24651e-18 0.45203 0.4375 -1.27166e-18 0.636338 -0.4375 -3.18222e-18 0.637551 0.75 -1.59252e-18
0.203961 -0.75 -3.38897e-18 0.204465 0.1875 -2.65116e-18 0.760279 -0.1875 0 0.76087
0.6875 4.68344e-19 0.389213 -0.6875 1.91147e-18 0.390167 0.375 0 0.698181 -0.375
1.91584e-18 0.699345 0.75 0 0.2657 -0.75 -5.04871e-29 0.266377 0.25 1.57772e-30
0.760201 -0.25 6.31089e-30 0.760991 0.5625 0 0.574508 -0.5625 0 0.57579
0.625 0 0.51275 -0.625 0 0.513942 0.5 0 0.63629 -0.5
0 0.637631 -0.8125 0 0 0.8125 -3.15544e-30 0 -0.8125 -2.65391e-19
0.01875 0.8125 -2.54486e-18 0.01875 0.8125 -3.15544e-30 0.0804832 -0.8125 0 0.080659
0.75 0 0.327439 -0.75 0 0.328293 0.308355 0 0.760081 0.3125
0 0.760072 0.6875 6.31089e-30 0.450962 1.8335e-11 -6.31089e-30 0.822406 -0.3125 -2.82488e-18
0.761121 -0.6875 0 0.452083 0.4375 0 0.698104 0.0625 6.31089e-30 0.822327
0.8125 2.65865e-18 0.142217 -0.0625 -6.31089e-30 0.822503 -0.8125 -1.243e-18 0.142571 -0.4375
0 0.699469 0.3125 -9.86076e-32 0.768058 0.125 -2.30523e-18 0.822198 -0.125 2.23709e-18
0.822616 0.8125 0 0.20395 -0.8125 1.00974e-28 0.204487 0.1875 3.15544e-30 0.822087
-0.1875 0 0.822743 0.75 0 0.389179 -0.75 0 0.390213 0.375
-1.57772e-30 0.759961 -0.375 0 0.761257 0.625 -3.56137e-19 0.5745 0.5625 5.79545e-20
0.63626 -0.625 3.27226e-18 0.575858 -0.5625 2.77466e-18 0.637702 0.8125 0 0.265684
-0.8125 0 0.266417 0.6875 0 0.512713 -0.6875 8.28782e-19 0.514003 0.5
0 0.698047 0.25 0 0.821997 -0.5 6.31089e-30 0.699537 -0.25 -1.344e-19
0.822881 -0.875 0 0 0.875 0 0 0.75 -2.10549e-18 0.45092
-0.875 0 0.01875 0.875 0 0.01875 -0.75 1.56797e-20 0.452151 0.8125
0 0.327419 -0.8125 -1.00974e-28 0.32834 0.4375 0 0.759871 -0.4375 -6.31089e-30
0.761365 0.875 5.04368e-19 0.0804812 -0.875 -2.51369e-18 0.080669 0.3125 0 0.821875
-0.3125 0 0.823027 2.47722e-11 -1.26218e-29 0.88424 0.0625 -1.66421e-18 0.884149 0.875
0 0.142212 0.33235 7.88861e-31 0.821834 -0.875 0 0.142591 -0.0625 2.92278e-18
0.884351 0.625 6.31089e-30 0.63625 0.125 0 0.884028 -0.625 0 0.637779
-0.125 1.26218e-29 0.88448 0.6875 0 0.574467 0.5625 6.31089e-30 0.698012 -0.6875
2.52435e-29 0.575948 -0.5625 0 0.699618 0.875 2.58384e-20 0.203944 -0.875 9.09699e-19
0.204515 0.8125 0 0.389154 -0.8125 3.37331e-18 0.390268 0.375 1.97423e-18 0.821747
0.1875 -1.85962e-18 0.8839 -0.1875 2.49188e-18 0.884624 -0.375 -1.97905e-18 0.82318 0.75
6.31089e-30 0.512662 -0.75 0 0.514078 0.5 0 0.759805 -0.5 0
0.761448 0.875 -6.31089e-30 0.265675 -0.875 0 0.266443 0.25 0 0.883795
-0.25 0 0.88478 0.8125 0 0.450889 -0.8125 0 0.452199 0.4375
3.15544e-30 0.821642 -0.4375 1.26218e-29 0.823271 0.875 -9.20802e-19 0.327407 -0.875 9.03125e-19
0.328375 0.6875 0 0.636224 0.625 -2.7446e-18 0.698 0.3125 -2.49404e-18 0.883686
-0.9375 4.03897e-28 0 0.9375 0 0 -0.9375 -1.92536e-18 0.01875 0.9375
4.53743e-19 0.01875 -0.6875 -3.21362e-18 0.637874 -0.625 1.90886e-19 0.699706 -0.3125 8.78757e-19
0.884945 0.9375 0 0.0804805 -0.9375 4.03897e-28 0.0806755 0.75 -1.26218e-29 0.574406
0.5625 1.00038e-18 0.759764 -0.75 0 0.576008 3.4849e-11 2.81091e-18 0.946078 -0.5625
-2.18181e-18 0.761541 0.0625 0 0.945974 0.9375 1.49422e-18 0.142211 -0.0625 -1.26218e-29
0.946205 -0.9375 1.98124e-18 0.142604 0.358506 3.9443e-31 0.883577 0.125 -1.04263e-18 0.945865
-0.125 2.57769e-18 0.946353 0.875 0 0.389138 -0.875 0 0.39031 0.9375
0 0.203942 -0.9375 4.03897e-28 0.204536 0.375 7.88861e-31 0.883538 0.8125 -2.70638e-18
[...]
POINT_DATA 9400
FIELD attributes 1
p 1 9400 float
1.33935 1.33869 1.50943 1.16465 1.50881 1.16394 1.34032 1.16532 1.51061 1.67488 0.985299
1.67426 0.984537 1.34737 0.985657 1.67617 0.896534 1.17187 1.51808 0.895754 1.83559
0.801584 0.853099 1.835 0.800784 0.991651 1.68398 0.801671 1.83701 1.3581 1.18187
1.52947 0.821358 0.807112 1.84509 1.00087 1.69593 1.99173 0.61408 1.99119 0.613247
0.811094 0.613907 1.99335 1.37278 1.19561 1.54502 0.815495 1.85751 0.801318 0.618781
2.00166 1.0136 1.71225 2.14322 0.423234 2.14272 0.42236 0.422764 0.626281 2.145
2.01448 0.827117 1.87446 1.39187 0.791052 1.21353 1.56516 0.427032 2.15351 1.03026
1.73328 0.636712 2.03197 0.433607 2.16667 2.28972 0.22913 2.28922 0.22821 0.842416
1.89624 0.228333 2.29154 0.786009 1.41666 1.23694 1.59119 0.23194 2.30021 1.05216
1.76039 0.442768 2.18466 0.650509 2.05438 0.237511 2.31365 0.862668 1.92427 2.43133
0.0320542 2.43084 0.0310899 0.783051 0.0309182 2.43327 1.44625 0.4549 2.20761 1.26494
1.62222 0.245288 2.33208 0.0338122 2.44213 0.668918 2.08315 1.07839 1.79271 0.0382682
2.45572 0.886912 1.95767 0.255615 2.35555 0.471261 2.23701 2.56861 -0.16745 2.56815
-0.168452 0.777454 -0.168935 2.57075 0.0445208 2.47445 1.47898 0.690959 2.11746 1.29587
1.65659 -0.166815 2.57978 1.10729 1.82854 -0.16356 2.59349 0.269759 2.38549 0.913522
0.0529161 1.99472 2.49838 0.490905 2.27207 2.70162 -0.369249 2.70118 -0.370289 0.764738
-0.158953 2.6124 -0.371113 2.70378 0.715039 2.15552 1.51697 1.33179 1.69641 -0.369823
2.71287 0.0646883 2.52876 0.286788 2.42112 1.1409 1.86996 -0.152648 2.63655 -0.367827
2.72682 0.512236 2.31096 0.944546 2.0375 -0.364953 2.74592 2.82991 -0.573396 2.8295
-0.574486 0.745018 0.743195 2.1994 0.744068 0.0788702 2.56478 -0.575676 2.83206 -0.143432
2.66717 0.305113 2.46064 1.56215 1.37466 1.7436 -0.575256 2.84111 1.18117 1.91889
-0.360895 2.77004 0.537222 2.3557 -0.574583 2.85536 0.981925 2.0879 -0.132297 2.70344
0.0939143 2.60469 -0.57353 2.87476 0.77735 -0.354421 2.25098 2.80064 0.326647 2.50601
2.95308 -0.779614 2.9528 -0.780755 0.7243 -0.782321 2.95541 1.6141 1.42412 1.79773
-0.782803 2.96437 -0.571836 2.89872 0.567786 1.22778 2.40818 1.97489 -0.12076 2.7436
-0.783529 2.97888 -0.346503 2.83713 0.111715 2.6505 1.02533 2.14546 -0.568252 2.92917
-0.784395 2.99865 0.353298 2.55915 0.81718 2.30977 3.06995 -0.987304 3.06992 -0.9885
-0.990454 3.07294 0.696646 1.67225 -0.338673 -0.785152 -0.106973 3.02251 2.8775 2.78964
1.47963 1.85821 -0.991868 3.08196 0.603655 2.46792 1.28021 -0.563732 2.03736 2.96588
0.134139 2.70408 -0.994055 3.09672 1.07422 2.20956 -0.784576 3.05279 0.384813 2.61955
-0.996919 3.11692 0.862138 2.37517 -0.329173 2.92355 -0.559823 3.00646 -0.089117 2.84343
3.17975 -1.19578 3.18015 -1.19701 -1.19935 3.18391 -1.00021 3.14074 0.65873 0.644283
-0.783641 1.73744 2.53431 3.08974 0.160897 1.54195 -1.20172 1.92583 3.19332 2.76484
0.650232 1.3392 2.10702 -1.20539 3.20914 1.12936 2.28091 -1.00275 3.17091 0.420622
2.68657 -0.554838 -0.316204 3.05228 2.97732 -1.21029 3.23018 -0.783857 3.13044 -0.0674957
0.912967 2.90434 2.44788 3.2861 -1.4047 -1.00553 3.28697 -1.40596 3.20813 -1.2162
3.25295 0.191414 2.83209 -1.40865 3.29028 0.690319 2.608 1.81024 1.61166 -1.41198
0.61759 3.29938 2.00123 -0.547018 1.40529 3.10576 2.1846 -0.783582 -0.300048 3.17583
3.03828 -1.41715 3.31902 -1.22194 3.28213 0.461317 1.19125 2.36029 2.76085 -1.01001
3.24883 -0.0426706 2.97165 -1.4241 3.34231 0.970099 2.52868 -1.22849 3.32041 0.226272
2.90663 -1.43266 3.36087 -0.781135 -0.536639 0.742129 3.39633 -1.61379 3.39684 -1.61509
3.22882 3.16666 2.68982 -1.61816 3.39645 -1.01461 -0.28129 3.2936 1.88963 3.10554
1.68777 -1.62245 2.08341 3.40357 0.569217 1.47753 2.26911 -1.44164 3.38596 -1.62918
3.42895 0.507226 -1.23731 2.84329 3.36188 -0.0140915 3.04616 1.25896 2.4467 -1.63823
3.4554 1.03259 2.61654 -0.776831 3.28951 -1.01774 -0.524323 -1.45202 3.34604 3.42784
3.23375 0.26573 2.98935 0.534207 -1.64943 3.46817 -1.24693 -0.259451 0.798794 3.40514
2.77867 3.17976 3.50853 -1.82225 3.50599 -1.82359 -1.82704 3.48664 1.97454 1.76922
2.17121 -1.83234 3.51101 -1.46527 3.47307 0.0183898 -1.66165 1.55491 3.48738 2.35928
3.12885 0.557442 2.93273 0.5201 -1.84067 3.51977 -1.01976 -0.771303 1.33155 2.53872
3.40648 3.35625 -1.25582 -0.509674 3.45622 3.30738 -1.85188 3.56027 1.09963 2.70993
-1.67593 3.53426 0.308847 3.07898 -1.48002 -0.234463 3.51236 3.26209 -1.86572 3.55845
0.859577 2.87299 -2.02979 -2.03115 -2.03499 -1.0213 -1.69371 3.4727 0.0538009 3.5853
2.06827 -1.26434 3.21826 -0.764219 1.85926 2.26795 -2.04133 3.51705 3.42908 -1.88121
3.59669 0.611285 3.02754 1.64061 2.45842 -1.49482 -2.05126 -0.492683 3.55858 3.38906
1.4122 0.48384 2.6397 -2.06458 -1.89944 3.62562 0.355012 1.17437 2.81217 -1.71367
-0.207312 3.17384 3.61911 3.35104 -2.0811 -1.27317 -1.02212 0.927576 3.58323 3.54455
2.97599 -1.51002 -0.755679 3.62166 3.50998 -1.92179 0.0915954 3.69008 3.72005 -2.23654
-2.23793 3.71165 3.31276 -2.24217 -2.09989 2.17445 0.671773 -1.73446 -0.474362 1.9616
2.37725 -2.24955 3.65709 3.13089 3.47747 3.71832 1.73835 2.57019 -2.26102 1.50457
2.75326 0.467518 -1.947 -0.178549 3.70855 -2.12203 0.407194 -1.28221 3.44494 -2.27639
3.27714 3.65331 3.75114 1.26044 -1.02244 -1.52635 2.92686 3.69009 3.62461 -0.746745
-1.7565 3.72264 3.59776 -2.29554 1.00636 3.09125 -2.14892 0.134642 3.41561 -0.455282
-1.97387 3.76186 3.57063 -2.44199 -2.44342 -2.44805 -2.31758 0.742434 3.24632 3.80986
2.29321 2.07649 2.49915 -2.45639 1.84851 -1.29177 -1.54385 2.69451 3.75645 3.73183
-2.46935 -1.02336 -1.78053 -0.145447 1.60911 -2.17945 3.79491 3.71166 2.87919 3.54691
0.483833 -2.34361 0.468805 3.39233 -2.48672 1.35836 -0.737965 -2.00286 3.05365 3.80754
3.69006 -2.50842 1.09658 3.21841 0.186229 -2.37503 -0.432845 -2.21246 3.53012 3.88337
3.67139 -1.56288 3.83072 -1.3029 -1.80664 3.85648 3.81863 -2.53364 0.515312 3.90959
-2.64513 -2.6466 0.82395 3.90029 3.3734 -2.65158 -1.02542 2.42433 -2.0347 2.20371
2.63335 3.89168 3.80291 -2.66081 3.87471 1.97088 2.83091 -0.104781 -2.41083 3.66035
-2.67518 1.72568 0.540552 3.01693 -2.56355 0.536316 -0.726847 -2.2484 3.51884 3.78927
-2.69449 1.46811 3.19197 3.93478 -1.58451 -1.83532 3.9246 3.91937 -0.403918 -2.71869
-2.44994 0.247079 1.19829 -2.59949 -1.3162 -2.06956 3.78334 3.3568 3.65558 3.93812
3.90932 3.96541 -1.02626 -2.28807 3.90039 -2.74708 0.916375 3.51133 -2.84522 -2.8467
3.96524 -2.85198 2.56908 -0.0558452 2.34451 2.78104 -2.64049 -2.86206 3.78447 2.10675
-0.710443 2.98054 -2.49279 3.89939 -2.87775 0.622554 0.61577 -2.78083 1.85555 3.65575
-1.86773 3.16762 4.01702 -1.60941 -2.10809 4.02323 4.01216 -2.89892 1.59092 3.34302
-1.32955 -2.33181 4.00432 -0.367874 -2.68559 3.90589 0.317431 -2.82121 -2.92562 3.79107
1.31272 3.50759 -1.02313 4.0621 -2.5403 4.00853 4.06909 1.02113 -2.95715 3.66125
0.001716 -3.04184 -3.04333 -1.90459 -2.86732 -2.15149 -0.688246 3.91821 -2.73532 -3.04893
4.10037 4.11431 4.0201 2.72869 2.50027 -1.63574 2.9434 -2.3803 -3.05985 4.10215
2.25756 3.14455 0.716609 0.710166 -2.99463 3.80428 -3.07684 2.00036 -1.34042 3.33235
-2.59289 4.10972 -3.09984 -0.324182 1.72881 -2.91832 3.50783 4.03762 0.399421 -1.01561
-3.03932 4.11416 -2.79062 3.93785 4.12712 1.44232 -3.12899 3.67175 -2.20052 -1.94423
4.20841 -2.43477 4.19711 1.14097 -3.16359 -1.66121 -0.659514 -2.65132 3.82408 0.0702075
-2.97481 4.2011 -3.09042 4.14955 4.0628 4.21407 -3.23447 -3.23598 -3.24189 2.90398
2.67217 -1.34838 3.12104 -2.85196 -3.25365 0.825403 4.22652 2.42505 0.813015 -3.20471
3.32353 3.96532 -3.27194 2.16233 3.51164 -0.270429 -3.14721 4.17958 -1.00284 1.88415
-3.29676 -3.03775 -2.25373 -2.49608 3.68676 4.25392 0.495612 4.27546 -3.25357 -1.9847
4.09669 -2.71687 4.24116 4.28516 1.58963 -3.32827 3.84953 -1.68538 -2.9202 4.31803
-0.621792 -3.21025 0.151849 1.27815 4.28857 -3.36583 -3.30953 4.00004 4.21899 -1.35253
-3.10766 4.3509 4.2143 -3.42285 -3.42436 4.20701 -3.43055 3.09703 2.86276 0.950388
3.31543 0.920264 -3.41049 -2.56306 -3.44308 2.61199 4.13897 -2.30953 3.51833 -2.79053
4.37533 -0.205015 -0.204993 -3.46265 2.34413 -0.982521 -3.37191 3.70624 4.37941 4.33273
-2.02565 -3.28058 -2.99677 4.3897 4.4034 2.05907 -3.48923 0.606706 0.606722 3.8804
-3.4634 4.26755 -1.70736 4.24349 -3.18554 4.44271 1.75596 -3.523 4.0414 4.35324
-0.57421 -0.574185 -3.4413 4.4384 0.246813 0.246824 0.246697 -1.35093 1.43331 -3.52399
-3.35885 4.38671 -3.56339 4.48276 4.1895 -2.63441 -2.87134 -2.36766 -3.08269 4.47517
-3.60684 -3.60835 1.09189 -3.61479 -2.06618 3.31142 3.07544 -3.6114 -3.27287 3.52982
4.3255 -0.95448 -0.954459 -0.12835 -3.62807 4.53132 2.82097 -3.51875 3.73167 -3.59171
4.53608 4.49707 2.54736 -3.64882 3.11584 3.91834 -1.72562 -3.44608 0.732763 2.25457
4.56893 -3.67705 -3.66813 2.88018 4.45069 4.09067 -2.95819 -0.517685 1.94207 4.35112
-3.71299 -2.70988 -3.1771 4.24912 -3.66719 4.59917 -1.34395 -1.34394 4.55197 -3.60501
0.355325 4.62484 -2.42723 -3.37069 -3.73309 4.56607 1.60772 -3.75606 4.61269 4.39411
4.53358 -2.10514 -2.10516 -3.54378 4.65054 -0.919923 1.25166 -3.78644 -3.78795 -0.039901
-3.75142 -3.8072 4.52651 -3.79462 4.69306 3.48577 3.54918 3.31158 3.76698 -3.80587
4.67239 3.56393 -3.80856 3.05301 3.05263 3.05327 -1.74104 -1.74104 -1.74135 3.9667
-3.70121 4.70391 2.77305 -3.83043 -3.05105 4.15052 -3.27918 0.875622 3.82413 -2.78879
-3.47832 -3.86749 2.47193 4.64761 -3.86024 4.31949 -0.451513 -2.48752 -2.48756 -1.33294
-3.65299 -3.88708 4.77033 2.14959 -3.84523 4.77804 -3.89821 4.47437 4.71642 0.479605
-3.93658 4.75844 -2.14398 -3.80881 1.80391 4.77667 -3.94378 4.61547 -0.878084 -3.97767
-3.38925 4.85981 0.0627145 0.0627369 1.4328 0.0627245 -1.75507 -3.14945 -3.59525 -3.99783
4.74344 -4.01409 -3.94989 -3.9614 4.85983 -3.96294 4.85539 -3.96978 3.81048 1.25445
3.57172 3.55979 -2.87087 -2.87092 4.02742 4.75 -3.77336 3.30983 4.16178 -3.98428
4.53273 4.67525 4.22489 3.0242 -4.0072 1.0388 1.0388 1.0388 4.24955 4.40469
-2.55047 -4.06146 -3.92888 4.85959 2.7146 -1.3173 -0.373243 -0.373232 -0.373231 -4.03849
4.56851 4.85444 -4.07854 -4.1006 4.9407 4.95265 2.3822 -2.18431 -4.0783 4.71833
0.622371 0.622375 0.622376 3.70548 -4.06684 4.92988 -4.13438 4.96504 4.5087 -3.50704
-3.72213 2.02454 -3.2534 -3.25346 -4.12613 -3.90462 4.85435 -0.826724 -0.826714 -0.826713
-1.76728 -4.19706 5.03683 -2.95838 -4.19109 0.182701 0.182695 0.182703 -4.06133 5.01674
1.63939 -4.21623 5.06077 -4.18289 4.97683 4.46499 -4.13103 -4.13264 4.46054 -4.13958
-2.61801 4.09712 3.90991 3.85788 4.31222 -4.19711 3.5932 -4.15448 4.50671 4.99465
1.22685 3.30343 -1.2953 -1.29529 -1.29529 -4.17836 4.68185 -4.2496 5.087 -0.279706
-4.3045 5.1119 4.76165 2.9873 -4.3076 5.14766 -2.22599 -4.21097 -3.85889 4.83962
-3.63269 -3.63277 -4.3167 -4.04766 5.09297 4.48939 2.64537 -3.36555 0.788184 4.87972
-4.20615 4.88281 -4.25243 4.98265 -4.32598 5.18628 4.9932 -3.05358 -0.763072 2.27493
-1.77672 -1.77672 -1.77673 -1.77672 -4.34087 5.11168 -4.30229 -4.40952 5.22571 -4.42432
5.18024 0.322847 -2.6904 -4.41175 5.27565 1.87388 -4.4564 5.22717 -4.36147 5.15972
-4.29418 -4.29585 4.16814 4.16744 -4.30292 -4.00578 -4.00586 4.40885 -4.20269 4.62191
-1.26456 3.90278 -4.31826 -3.76925 5.16217 4.81347 -4.36448 1.44206 -4.523 4.78446
5.29395 -0.168985 -2.26864 3.61107 5.33033 -4.43094 -4.343 4.98305 -4.55782 -4.50758
-3.48862 5.35588 5.24587 -4.49834 3.29162 -4.37672 5.13417 4.58298 0.979736 -3.15738
2.94124 -4.61062 5.26918 5.42241 -4.51042 -4.41969 5.30177 -1.78161 -0.685459 -4.64943
5.35229 -4.6145 2.55794 5.42703 5.3892 -4.47138 -2.7681 0.486579 -4.37007 -4.37082
-4.70616 -4.1662 -4.53685 -4.59972 5.50435 5.29697 2.14059 5.44669 -3.92002 -4.67092
5.49594 -4.53265 5.09044 -1.22364 4.74153 -4.44995 4.74314 -4.45158 -3.62414 4.95081
-2.31165 4.95317 4.50965 4.95392 -4.73346 -4.45886 5.48893 -4.77984 4.24739 -4.79015
1.68862 -0.0374164 -4.47493 5.4044 5.14377 5.26427 5.59066 -4.60449 -4.69956 5.57692
3.95489 -4.50055 5.30763 -3.27109 3.63113 -4.87002 -4.53533 5.45253 1.20135 -1.78075
3.27334 5.67423 -4.68674 -4.55341 -4.72369 -4.72454 5.57867 -4.57966 -0.590492 -4.86586
5.54264 -4.34398 -4.85945 -4.81094 -2.85095 5.64034 -4.94644 2.87804 -4.08704 5.68873
-4.63297 5.45922 -4.96544 0.67823 5.74742 -4.7792 4.75532 2.44435 -3.77423 5.77644
5.78483 -5.04992 5.78639 -4.69609 -1.1696 -2.35391 -4.9348 5.69548 -5.01313 5.59153
-4.59906 5.11643 -4.60057 0.119209 5.31869 4.88809 -4.60817 1.97163 5.49417 -3.39521
5.49639 4.62944 5.81089 -4.88256 -4.62512 5.86909 -4.77003 -5.11901 -4.92865 5.64885
5.65244 4.33753 5.65325 -4.757 -4.65162 -5.06449 -4.54168 4.01053 -5.16871 -4.68742
5.79239 -1.77184 1.45835 5.94136 -5.07255 5.74495 5.9425 -0.474215 -4.85469 -2.93878
-4.27315 3.6462 5.35974 5.90974 -5.17655 -4.73292 -5.24722 5.86563 -4.99783 5.63234
5.10039 3.24058 0.903316 6.01079 -3.94009 -4.78763 -5.3084 6.00549 -4.94991 5.55457
-2.39396 -1.09907 2.79081 -5.2256 6.09509 5.79122 -4.85241 5.91233 -5.12604 -5.15642
-5.2891 -5.2895 -5.28964 -4.984 -3.53026 -5.39047 0.306218 -5.35676 4.68606 -4.74207
5.52638 -4.74351 6.05895 2.29681 -5.05634 -4.76291 5.71917 5.30516 4.68079 -4.7514
-5.4637 6.16649 5.88611 5.05173 -4.92818 -4.76899 6.03015 4.76239 -4.79617 -1.75225
-4.48051 -3.03096 6.15005 -5.51603 6.15333 4.43448 -5.2685 5.95243 1.7567 -4.8328
-0.331737 -5.39518 6.22202 6.2274 -5.01489 6.23004 5.82749 6.10413 -5.17503 6.25425
6.2593 4.06536 6.25998 4.66962 -4.87923 -4.12323 -5.55443 -5.53945 3.65122 1.16821
-5.41082 -5.6337 4.98221 -5.63593 6.35239 -4.93511 6.27855 -5.11245 -2.42999 -5.2388
-5.70048 -1.0077 -5.42649 5.98668 3.18717 -3.67682 6.14117 -5.307 -5.01077 6.42526
-5.00129 -5.58197 -5.74418 0.530064 6.32126 -5.22158 5.61753 2.67167 -4.87861 5.9744
-4.88 -4.71174 6.39846 6.15584 5.76308 -4.88803 6.48448 -5.07858 -5.77108 6.31029
5.51777 -4.906 -1.71837 -3.12679 6.44029 5.23389 6.16971 -5.45346 -4.93362 -5.60124
6.00895 -0.156799 2.10388 4.7895 6.54876 4.90804 -5.81876 -5.90341 -4.97085 -4.32558
6.53062 6.35592 -5.16695 -5.34322 -5.69699 -5.95984 -5.9608 -5.78675 6.63906 4.53681
5.87562 -5.01802 -5.52529 -5.9941 1.48043 -2.45959 6.708 6.71205 4.11612 6.56787
-5.26652 -5.07485 -5.6156 -5.2889 -0.889579 -3.83573 -6.07562 6.19154 -6.00916 6.38303
-5.79357 -5.47833 6.58197 6.76522 3.64055 6.77097 6.77141 -5.14215 0.798549 -4.97003
-6.01102 6.59801 -5.37794 3.10542 -6.2047 -6.13321 -6.22289 -6.24678 -3.2253 -1.66509
6.82026 -5.00835 6.46351 -5.0097 -5.22064 6.63035 6.26547 -5.01784 -5.79468 -6.0195
6.40391 6.7692 6.03172 -5.62811 -5.03608 -6.26742 6.21033 -4.54953 6.88291 5.75687
-5.064 0.0584721 -6.0043 2.50965 5.49604 -5.84789 6.62084 -5.50197 -6.27016 6.97479
5.43676 6.85219 -5.31041 -5.10167 6.72382 7.0476 5.06721 -5.60175 -5.14941 -2.47907
-6.25717 1.84981 -4.0076 4.91323 -5.7937 6.41992 6.87561 -0.737359 7.10298 4.64273
-5.99151 -5.41163 5.92361 -5.20699 -6.42938 6.63733 -5.63959 -6.54398 -5.25934 -6.56713
-6.2348 -6.48795 7.14376 4.15812 -6.5691 5.25049 -5.27519 1.12176 6.89075 -6.38343
-5.52486 -6.55538 -3.32453 -1.58605 3.60705 7.16632 7.17102 -5.97623 6.42838 6.65096
-4.79748 -5.35468 -5.79208 6.89531 -6.21247 -5.131 6.99658 -5.1323 7.14501 6.81584
-5.14052 -6.52724 -6.20694 7.26472 6.59777 6.2414 -5.15896 0.324197 7.35886 6.33635
6.89947 7.18031 2.98414 -5.18712 -5.65075 7.18822 7.18842 -5.95504 -6.62222 -5.44558
7.43105 6.02656 -5.22514 -6.48735 6.93473 -2.48338 -4.19234 -6.92767 7.48434 5.66339
-6.92675 -6.90547 -5.27331 -5.96038 -6.17653 6.65974 2.28707 -0.541349 -6.88865 7.20074
-6.86935 -5.54809 -5.58427 6.90311 7.52046 5.2401 -5.79033 -6.44238 -5.33148 -6.79565
-6.82238 7.54132 4.74998 1.51103 -5.40041 -3.42143 7.20076 -5.66269 -6.62659 -6.14544
-1.47249 -5.07175 -6.76452 6.65584 6.90358 -6.39552 -5.94489 7.54923 4.18718 -6.80627
-5.48069 -5.24615 7.57678 -5.24741 7.70252 7.41803 -5.25565 0.652398 -6.35567 7.79915
7.22066 -7.33396 -7.28329 -5.27423 7.19349 -6.69989 -5.79002 3.54118 -7.35908 5.13689
7.87005 6.97791 -7.21847 7.5481 -5.30256 6.25331 -5.57246 -4.3896 7.9192 6.68404
-7.34278 -2.46513 -6.56488 -7.14605 -5.34082 -6.60805 -6.34825 -7.38364 -6.11514 6.89695
-5.95001 7.94998 6.33311 -0.289379 2.80638 7.53193 -6.76895 -5.3893 7.18354 -7.26513
-6.63471 7.54014 7.53976 -7.06737 7.18209 -5.6759 -5.9311 -6.51039 7.19941 7.96408
5.91702 -5.44792 -6.46941 -7.09923 -7.48057 -6.98218 -6.98246 -6.98384 -3.51091 1.98079
7.96337 5.4272 -5.37518 -5.51738 7.52545 -6.302 6.88086 -5.79152 -1.31286 -6.56986
-7.70798 6.6379 -7.79217 -7.60945 7.1659 -6.08711 -7.84887 -6.81179 7.95072 4.85695
-7.50454 -6.89574 -5.59819 -6.4666 1.05801 -7.86042 -5.35358 8.20703 -5.35478 -7.95039
8.30519 8.07575 -5.36297 -7.39814 7.50177 -6.44712 -5.91992 8.37446 7.90492 -5.38155
5.98283 4.19421 -4.59764 7.92923 8.41807 7.68694 -2.41439 -5.40991 -5.6905 -6.50658
5.57965 -7.80201 -6.36288 7.14102 -6.2587 8.44039 7.41581 -7.29039 -5.44828 -6.81165
0.0339739 8.44537 7.08459 3.42685 -7.98364 7.4756 7.90046 -5.49694 -6.06203 -5.79453
-7.64131 -7.1812 -8.18595 -8.04759 8.43462 6.68316 -5.55584 -8.31059 -7.90486 -3.58552
-5.71022 -6.44344 7.85088 -6.44122 2.55125 -6.44681 7.1133 -6.72994 -8.40728 7.8638
-7.76289 8.40983 6.20122 -1.09211 7.44862 -5.91074 -5.62558 -7.33348 7.44566 -6.2189
-7.07485 -8.45442 7.46995 -7.62592 6.61504 8.37413 5.62963 7.79935 -5.70662 1.56077
7.82214 7.8202 -4.81283 -8.42158 -6.03968 -5.45334 8.89019 -5.45448 8.955 8.79253
-5.4626 -7.4927 -2.31784 8.99236 8.65539 -6.83007 -6.65249 -5.48113 8.33046 4.95687
5.34676 -6.97326 9.00409 8.46921 7.40919 -5.79917 -6.39121 -8.59108 -6.39598 -5.50943
-6.39519 -8.53931 -8.72548 -8.35198 8.99554 8.22947 -8.86892 -5.54779 0.449127 -8.2669
-8.90077 -5.56542 -8.16892 -5.55247 -5.58953 -7.362 7.78184 4.16625 -5.63691 -6.18224
-5.52654 8.27995 8.97105 7.92699 -5.59652 -5.69439 -5.90344 -5.51168 -9.04837 -7.99435
-5.76167 -6.07845 -3.63515 -6.31252 8.93252 7.55022 -6.26464 -5.83825 -5.50706 -5.65554
-6.87668 7.05939 7.37347 -6.5798 -7.93316 -5.9235 3.24366 -9.14074 -0.789294 8.2226
-6.00055 -6.21468 -7.83118 -7.23763 -6.01644 -5.51094 -5.51205 8.8807 7.0859 -6.11387
-6.01981 7.7389 -6.3394 -5.72535 -9.14092 8.81913 6.52463 -7.67551 2.18364 -5.80639
-5.0295 -9.09249 -8.85186 8.16058 -7.35944 -9.3377 -8.62082 -6.14884 -6.78567 -2.15579
7.69718 -7.12042 -5.54534 9.62742 -9.54739 -5.54643 9.65138 9.56897 -5.55448 7.68979
-9.57707 -6.51177 -8.40291 8.75086 9.65251 9.47288 5.85166 -5.57292 -8.99366 -5.89888
9.62776 9.32586 -5.60112 -7.5255 8.0758 7.7305 -9.78884 0.979657 9.58475 9.12918
-8.20128 8.09848 -5.63942 8.09399 -6.29137 8.67745 5.0467 9.52539 8.86445 -6.48032
-9.87327 -6.00306 -5.68811 -3.64323 -9.93959 -7.00965 -8.6258 -8.0159 7.63109 -6.7001
9.45642 8.52309 -7.38476 -5.7471 7.00323 -0.379886 4.08709 -10.1386 8.59841 8.03871
-9.41174 -6.44832 -6.11927 -9.71733 -9.12382 9.3747 8.08686 -9.98208 -5.81683 -7.83947
-10.0365 -8.85602 -10.3484 -10.3259 -5.23637 -7.95983 -10.3563 9.28503 7.55175 2.96237
-8.60991 -10.4915 8.51531 -6.90535 -5.89764 5.993 -7.25276 -1.904 -6.248 -9.84375
7.97252 -6.62021 -10.6499 -7.67175 5.012 -5.62943 10.4166 -5.63047 -8.38603 10.2812
10.2826 -5.63842 9.18863 6.89069 5.00761 10.3531 10.355 -5.65676 -5.98979 10.1911
10.1165 1.66364 -5.68485 6.54921 8.4312 -10.8763 10.2066 10.1129 -6.39008 -6.91249
-5.72302 -8.17924 9.09081 6.08204 -3.5878 -9.43008 7.51097 -7.12845 7.89406 -10.0408
-9.68438 -6.09359 10.0194 9.74998 5.64355 7.90711 -7.51596 -5.77155 -10.4267 -6.80771
-9.358 8.31269 5.56176 -10.8384 10.0056 9.60147 -9.06083 0.175713 -10.9737 -5.83039
8.34748 -7.98378 8.98805 5.09679 5.09709 5.09674 8.33918 -6.54638 -6.20933 -11.2601
9.81532 -8.7906 9.04166 -5.89985 -8.63866 -5.41791 -7.37026 -11.367 -7.01183 3.92534
-11.6598 -10.8463 9.77189 8.71403 8.88239 -8.54622 -1.52417 -5.98019 -7.80089 -6.33739
8.26241 -6.71733 9.57492 -5.7058 7.91728 -5.70678 -10.3106 -11.9851 -5.71467 -10.7506
-9.91419 -6.07174 -11.5501 -8.32093 -5.73294 2.54033 -11.2362 -9.55803 -7.37007 8.77443
5.10269 -5.76087 -10.3668 -6.47858 -7.23356 -3.43131 -11.764 -7.6315 -5.79883 -9.23653
9.52056 7.27554 7.39688 8.17657 8.17593 -6.90347 -6.17488 -12.1549 -5.84708 -8.10983
-12.317 0.91752 -8.94578 6.3373 8.66879 -5.90559 -6.63383 9.33195 6.11191 8.25797