# vtk DataFile Version 2.0
sampleSurface
ASCII
DATASET POLYDATA
POINTS 9400 float
2.60369e-12 7.88861e-31 0 2.60369e-12 7.88861e-31 0.01875 -0.0625 0 0 0.0625 0
0 -0.0625 2.04574e-18 0.01875 0.0625 2.27264e-18 0.01875 2.45838e-12 -7.88861e-31 0.0805546
0.0625 0 0.080548 -0.0625 0 0.0805619 -0.125 0 0 0.125
0 0 -0.125 0 0.01875 0.125 0 0.01875 2.44092e-12 0
0.142361 0.125 -2.36236e-18 0.080537 -0.125 -1.99734e-18 0.0805727 0.155198 9.86076e-32 0
0.0625 2.25713e-18 0.142348 -0.0625 6.58074e-19 0.142376 0.155198 9.86076e-32 0.01875 -0.1875
0 0 0.1875 -1.97215e-31 0 0.17003 9.86076e-32 0.0805311 -0.1875 6.18262e-19
0.01875 0.1875 1.13376e-18 0.01875 0.125 0 0.142327 -0.125 -1.57772e-30 0.142397
0.1875 0 0.0805288 -0.1875 1.57772e-30 0.0805786 2.55289e-12 4.58002e-19 0.20417 0.0625
0 0.204149 -0.0625 0 0.204193 0.182675 -2.46519e-32 0.142311 0.1875 -2.46519e-32
0.14231 -0.1875 3.44655e-18 0.142409 0.125 1.8947e-18 0.20412 -0.125 8.62579e-19 0.204222
-0.25 0 0 0.25 0 0 -0.25 0 0.01875 0.25
0 0.01875 0.1875 0 0.171657 0.25 -1.85988e-18 0.0805215 -0.25 -7.89071e-19
0.0805852 2.80171e-12 0 0.265981 0.0625 -3.12196e-18 0.265952 -0.0625 0 0.266014
0.1875 0 0.204094 -0.1875 1.57772e-30 0.204241 0.192183 0 0.204092 0.25
0 0.142295 -0.25 0 0.142423 0.125 3.9443e-31 0.265926 -0.125 0
0.266049 -0.3125 1.57772e-30 0 0.3125 7.88861e-31 0 -0.3125 -2.90674e-18 0.01875
0.3125 -1.27488e-19 0.01875 0.3125 0 0.0805151 0.25 0 0.20407 -0.3125
0 0.0805924 -0.25 0 0.204262 0.1875 0 0.26588 -0.1875 5.62479e-19
0.266075 3.20058e-12 0 0.327795 0.199338 -9.86076e-32 0.265874 0.0625 0 0.327757
-0.0625 0 0.327848 0.3125 -2.71896e-18 0.142282 -0.3125 2.78209e-18 0.142437 0.125
6.9163e-19 0.327724 -0.125 2.08789e-18 0.327878 0.25 0 0.265848 -0.25 0
0.266105 0.3125 0 0.204049 -0.3125 0 0.204285 -0.375 0 0
0.375 0 0 -0.375 0 0.01875 0.375 0 0.01875 0.1875
0 0.32767 -0.1875 0 0.327912 0.375 -8.46552e-19 0.0805098 -0.375 -8.58061e-19
0.0806002 0.205871 0 0.327658 3.76968e-12 0 0.389612 0.0625 3.97291e-19 0.389565
-0.0625 2.2957e-18 0.389672 0.375 0 0.14227 -0.375 0 0.142454 0.125
0 0.389523 -0.125 0 0.389709 0.3125 0 0.265819 -0.3125 0
0.266137 0.25 -1.46378e-18 0.327628 -0.25 3.03983e-18 0.32795 0.375 0 0.204032
-0.375 2.41679e-18 0.20431 0.1875 -1.87127e-18 0.389464 -0.1875 3.73964e-19 0.389752 -0.4375
0 0 0.4375 0 0 -0.4375 1.89554e-18 0.01875 0.4375 -2.57557e-18
0.01875 0.213183 0 0.389442 0.4375 1.57772e-30 0.0805056 -0.4375 0 0.0806086
4.53883e-12 -3.03619e-18 0.451433 0.3125 0 0.32759 -0.3125 0 0.327991 0.0625
0 0.451375 -0.0625 1.57772e-30 0.451497 0.375 0 0.265795 -0.375 -1.57772e-30
0.266171 0.4375 3.41059e-18 0.142262 -0.4375 -9.03976e-19 0.142471 0.25 0 0.389411
-0.25 0 0.389799 0.125 -2.36403e-18 0.451324 -0.125 -5.90775e-19 0.451542 0.4375
0 0.204018 -0.4375 0 0.204337 0.1875 0 0.451262 -0.1875 0
0.451594 0.375 1.63705e-18 0.327558 -0.375 3.27259e-18 0.328036 0.3125 0 0.389363
-0.3125 -1.14983e-18 0.38985 -0.5 0 0 0.5 1.57772e-30 0 -0.5
0 0.01875 0.5 1.57772e-30 0.01875 0.222412 0 0.451226 0.5 2.84117e-18
0.0805025 -0.5 2.92717e-18 0.0806173 0.4375 -2.12621e-18 0.265775 -0.4375 -1.47432e-18 0.266207
5.55162e-12 1.57772e-30 0.513258 0.25 0 0.451197 -0.25 0 0.451651 0.0625
0 0.513189 -0.0625 4.3536e-19 0.513324 0.5 1.57772e-30 0.142255 -0.5 0
0.142489 0.125 0 0.513128 -0.125 0 0.513378 0.5 -1.57772e-30 0.204008
-0.5 3.15544e-30 0.204364 0.375 1.57772e-30 0.389324 -0.375 0 0.389905 0.1875
0 0.513077 0.4375 0 0.327533 -0.1875 0 0.51344 -0.4375 0
0.328082 0.3125 0 0.451139 -0.3125 3.15544e-30 0.451713 -0.5625 6.31089e-30 0
0.5625 3.15544e-30 0 -0.5625 -1.00175e-18 0.01875 0.5625 -2.39654e-18 0.01875 0.23435
0 0.513009 0.5 0 0.265761 -0.5 3.15544e-30 0.266245 0.5625 0
0.0805006 -0.5625 -6.31089e-30 0.0806264 0.25 0 0.512987 -0.25 0 0.513508
6.87235e-12 -3.15544e-30 0.5751 0.0625 0 0.575006 -0.0625 0 0.575154 0.5625
-3.18176e-18 0.142251 -0.5625 2.78172e-19 0.142507 0.4375 -3.799e-19 0.389292 -0.4375 4.15711e-19
0.389963 0.375 -3.25704e-18 0.451091 -0.375 -1.7012e-18 0.45178 0.125 3.22891e-18 0.574935
-0.125 2.76461e-18 0.575218 0.5 1.53587e-19 0.327515 -0.5 1.56796e-18 0.328131 0.5625
-3.15544e-30 0.204002 -0.5625 0 0.204393 0.3125 -3.04445e-18 0.512918 -0.3125 -1.22914e-18
0.513582 0.1875 -7.88861e-31 0.574873 -0.1875 3.15544e-30 0.57529 0.5625 0 0.265753
-0.5625 0 0.266284 -0.625 0 0 0.625 0 0 -0.625
0 0.01875 0.625 0 0.01875 0.249434 0 0.574782 0.25 -2.35481e-18
0.574782 -0.25 2.86973e-18 0.57537 0.25 0 0.576361 0.4375 0 0.451052
-0.4375 0 0.451849 0.625 -4.13928e-19 0.0805 -0.625 1.78069e-18 0.0806358 0.5
-3.15544e-30 0.389269 -0.5 0 0.390023 0.375 0 0.512859 -0.375 0
0.51366 8.59817e-12 0 0.636923 0.0625 -4.29693e-19 0.636828 -0.0625 2.53227e-18 0.636986
0.625 0 0.14225 -0.625 0 0.142527 0.125 0 0.636744 -0.125
0 0.63706 0.5625 0 0.327504 -0.5625 0 0.328182 0.3125 7.88861e-31
0.5747 -0.3125 0 0.575456 0.625 -2.48369e-18 0.204 -0.625 2.63567e-18 0.204423
0.1875 -2.99188e-18 0.636672 -0.1875 1.69459e-18 0.637144 0.5 -3.15544e-30 0.451023 -0.5
6.31089e-30 0.451922 0.4375 0 0.512812 -0.4375 0 0.513742 0.625 0
0.26575 -0.625 0 0.266325 0.25 0 0.636581 0.5625 -2.7276e-18 0.389255
-0.25 0 0.637237 -0.5625 -2.95645e-18 0.390085 0.375 -2.32583e-18 0.57463 -0.375
-1.63671e-19 0.575547 -0.6875 0 0 0.6875 0 0 -0.6875 7.54477e-19
0.01875 0.6875 2.80491e-18 0.01875 0.265822 0 0.636557 0.6875 0 0.0804911
-0.6875 2.52435e-29 0.0806455 1.08822e-11 3.25112e-18 0.698748 0.0625 -3.15544e-30 0.698655 -0.0625
0 0.698821 0.6875 0 0.142233 -0.6875 -5.02969e-19 0.142546 0.625 0
0.3275 -0.625 -2.67663e-18 0.32822 0.3125 2.79272e-18 0.636486 0.125 2.61292e-18 0.698557
-0.3125 -2.72054e-18 0.637337 -0.125 2.93961e-18 0.698907 0.5 -3.15544e-30 0.512778 -0.5
0 0.513828 0.6875 0 0.203976 -0.6875 0 0.204444 0.5625 0
0.451006 -0.5625 0 0.451996 0.4375 0 0.574574 -0.4375 0 0.575643
0.1875 0 0.698474 -0.1875 -6.31089e-30 0.699004 0.625 0 0.38925 -0.625
1.26218e-29 0.390123 0.6875 2.67855e-18 0.26572 -0.6875 3.2715e-19 0.266348 0.375 0
0.636404 -0.375 0 0.637442 0.25 -2.90235e-18 0.698407 -0.25 0 0.699111
-0.75 5.04871e-29 0 0.75 0 0 -0.75 5.04871e-29 0.01875 0.75
0 0.01875 0.75 0 0.0804865 -0.75 0 0.0806519 0.285281 3.9443e-31
0.698333 1.39788e-11 -6.31089e-30 0.760575 0.5625 -5.36693e-20 0.512757 0.6875 0 0.327466
0.5 -2.55668e-18 0.574533 -0.6875 0 0.328255 -0.5625 0 0.513884 -0.5
2.53415e-18 0.575741 0.0625 0 0.760507 -0.0625 -1.16387e-18 0.76066 0.75 0
0.142224 -0.75 0 0.142557 0.3125 0 0.698276 -0.3125 0 0.699225
0.125 0 0.760375 0.625 1.75231e-18 0.451 -0.125 -6.31089e-30 0.760759 -0.625
-3.24651e-18 0.45203 0.4375 -1.27166e-18 0.636338 -0.4375 -3.18222e-18 0.637551 0.75 -1.59252e-18
0.203961 -0.75 -3.38897e-18 0.204465 0.1875 -2.65116e-18 0.760279 -0.1875 0 0.76087
0.6875 4.68344e-19 0.389213 -0.6875 1.91147e-18 0.390167 0.375 0 0.698181 -0.375
1.91584e-18 0.699345 0.75 0 0.2657 -0.75 -5.04871e-29 0.266377 0.25 1.57772e-30
0.760201 -0.25 6.31089e-30 0.760991 0.5625 0 0.574508 -0.5625 0 0.57579
0.625 0 0.51275 -0.625 0 0.513942 0.5 0 0.63629 -0.5
0 0.637631 -0.8125 0 0 0.8125 -3.15544e-30 0 -0.8125 -2.65391e-19
0.01875 0.8125 -2.54486e-18 0.01875 0.8125 -3.15544e-30 0.0804832 -0.8125 0 0.080659
0.75 0 0.327439 -0.75 0 0.328293 0.308355 0 0.760081 0.3125
0 0.760072 0.6875 6.31089e-30 0.450962 1.8335e-11 -6.31089e-30 0.822406 -0.3125 -2.82488e-18
0.761121 -0.6875 0 0.452083 0.4375 0 0.698104 0.0625 6.31089e-30 0.822327
0.8125 2.65865e-18 0.142217 -0.0625 -6.31089e-30 0.822503 -0.8125 -1.243e-18 0.142571 -0.4375
0 0.699469 0.3125 -9.86076e-32 0.768058 0.125 -2.30523e-18 0.822198 -0.125 2.23709e-18
0.822616 0.8125 0 0.20395 -0.8125 1.00974e-28 0.204487 0.1875 3.15544e-30 0.822087
-0.1875 0 0.822743 0.75 0 0.389179 -0.75 0 0.390213 0.375
-1.57772e-30 0.759961 -0.375 0 0.761257 0.625 -3.56137e-19 0.5745 0.5625 5.79545e-20
0.63626 -0.625 3.27226e-18 0.575858 -0.5625 2.77466e-18 0.637702 0.8125 0 0.265684
-0.8125 0 0.266417 0.6875 0 0.512713 -0.6875 8.28782e-19 0.514003 0.5
0 0.698047 0.25 0 0.821997 -0.5 6.31089e-30 0.699537 -0.25 -1.344e-19
0.822881 -0.875 0 0 0.875 0 0 0.75 -2.10549e-18 0.45092
-0.875 0 0.01875 0.875 0 0.01875 -0.75 1.56797e-20 0.452151 0.8125
0 0.327419 -0.8125 -1.00974e-28 0.32834 0.4375 0 0.759871 -0.4375 -6.31089e-30
0.761365 0.875 5.04368e-19 0.0804812 -0.875 -2.51369e-18 0.080669 0.3125 0 0.821875
-0.3125 0 0.823027 2.47722e-11 -1.26218e-29 0.88424 0.0625 -1.66421e-18 0.884149 0.875
0 0.142212 0.33235 7.88861e-31 0.821834 -0.875 0 0.142591 -0.0625 2.92278e-18
0.884351 0.625 6.31089e-30 0.63625 0.125 0 0.884028 -0.625 0 0.637779
-0.125 1.26218e-29 0.88448 0.6875 0 0.574467 0.5625 6.31089e-30 0.698012 -0.6875
2.52435e-29 0.575948 -0.5625 0 0.699618 0.875 2.58384e-20 0.203944 -0.875 9.09699e-19
0.204515 0.8125 0 0.389154 -0.8125 3.37331e-18 0.390268 0.375 1.97423e-18 0.821747
0.1875 -1.85962e-18 0.8839 -0.1875 2.49188e-18 0.884624 -0.375 -1.97905e-18 0.82318 0.75
6.31089e-30 0.512662 -0.75 0 0.514078 0.5 0 0.759805 -0.5 0
0.761448 0.875 -6.31089e-30 0.265675 -0.875 0 0.266443 0.25 0 0.883795
-0.25 0 0.88478 0.8125 0 0.450889 -0.8125 0 0.452199 0.4375
3.15544e-30 0.821642 -0.4375 1.26218e-29 0.823271 0.875 -9.20802e-19 0.327407 -0.875 9.03125e-19
0.328375 0.6875 0 0.636224 0.625 -2.7446e-18 0.698 0.3125 -2.49404e-18 0.883686
-0.9375 4.03897e-28 0 0.9375 0 0 -0.9375 -1.92536e-18 0.01875 0.9375
4.53743e-19 0.01875 -0.6875 -3.21362e-18 0.637874 -0.625 1.90886e-19 0.699706 -0.3125 8.78757e-19
0.884945 0.9375 0 0.0804805 -0.9375 4.03897e-28 0.0806755 0.75 -1.26218e-29 0.574406
0.5625 1.00038e-18 0.759764 -0.75 0 0.576008 3.4849e-11 2.81091e-18 0.946078 -0.5625
-2.18181e-18 0.761541 0.0625 0 0.945974 0.9375 1.49422e-18 0.142211 -0.0625 -1.26218e-29
0.946205 -0.9375 1.98124e-18 0.142604 0.358506 3.9443e-31 0.883577 0.125 -1.04263e-18 0.945865
-0.125 2.57769e-18 0.946353 0.875 0 0.389138 -0.875 0 0.39031 0.9375
0 0.203942 -0.9375 4.03897e-28 0.204536 0.375 7.88861e-31 0.883538 0.8125 -2.70638e-18
[...]
POINT_DATA 9400
FIELD attributes 1
U 3 9400 float
20 0 0 20.1979 0.000475821 -0.00512415 20 0 0 20 0
0 20.1894 0.000476029 -0.00503307 20.2066 0.000472977 -0.00520735 20.2039 0.000472495 -0.014227
20.2126 0.000471971 -0.0144998 20.1954 0.000475116 -0.0139373 20 0 0 20
0 0 20.1812 0.000472626 -0.00493779 20.2154 0.000473942 -0.00528292 20.205 0.000472606
-0.025185 20.2216 0.00047732 -0.0147534 20.1871 0.000472986 -0.0136353 20 0 0
20.2138 0.000473045 -0.0256759 20.1965 0.000475043 -0.0246674 20.2198 0.00047855 -0.0053167 20
0 0 20 0 0 20.2282 0.000483564 -0.0149233 20.1732 0.000474658
-0.00484161 20.2245 0.000483478 -0.00535283 20.2228 0.000477454 -0.0261358 20.1882 0.000474684 -0.024128
20.2307 0.000485986 -0.0149893 20.179 0.000477655 -0.0133219 20.2051 0.000466831 -0.0363566 20.2139
0.000463424 -0.0370624 20.1965 0.000471956 -0.0356139 20.2312 0.000483799 -0.0265309 20.2319 0.00048433
-0.026564 20.1801 0.000480824 -0.0235666 20.2229 0.000466413 -0.0377255 20.1882 0.000471921 -0.0348391
20 0 0 20 0 0 20.1654 0.000479857 -0.00474444 20.2337
0.000484777 -0.00541676 20.232 0.000478436 -0.0321587 20.24 0.000484213 -0.0152062 20.1712 0.000488579
-0.0130017 20.2045 0.00045338 -0.0475446 20.2133 0.000446635 -0.0484787 20.1959 0.000460764 -0.0465637
20.2321 0.000471921 -0.0383426 20.1801 0.000478595 -0.0340326 20.2328 0.000471562 -0.0383852 20.2413
0.000480366 -0.026958 20.1722 0.000493905 -0.0229887 20.2224 0.000448579 -0.0493581 20.1875 0.000460554
-0.0455421 20 0 0 20 0 0 20.1578 0.000475844 -0.00464255
20.2431 0.000482583 -0.00547329 20.2496 0.000478271 -0.0154023 20.2415 0.000467132 -0.0389107 20.1636
0.000489422 -0.0126748 20.1722 0.000491437 -0.0332001 20.2317 0.00045312 -0.0501765 20.1794 0.000467429
-0.0444819 20.2031 0.000445019 -0.0588989 20.2334 0.000452223 -0.0503196 20.212 0.000439968 -0.060064
20.1944 0.000451687 -0.0576773 20.2508 0.000473043 -0.0273158 20.1646 0.000497366 -0.0224004 20.2211
0.000441641 -0.0611617 20.186 0.000452633 -0.0564044 20.2411 0.000448382 -0.0509319 20.1715 0.000480245
-0.0433911 20.2511 0.000459527 -0.0394265 20.1646 0.000495189 -0.0323509 20 0 0
20 0 0 20.1505 0.000468796 -0.00453718 20.2526 0.000490115 -0.00552171 20.2304
0.000445162 -0.0621846 20.1778 0.000460312 -0.0550866 20.2592 0.000483862 -0.0155756 20.1562 0.000485581
-0.0123408 20.2332 0.000443495 -0.0624623 20.2016 0.000439914 -0.0702635 20.2106 0.000434867 -0.0716705
20.1928 0.000447393 -0.0687899 20.2605 0.000477687 -0.0276339 20.1572 0.00049653 -0.0218018 20.2198
0.000435727 -0.0729991 20.1843 0.000449492 -0.0672553 20.2508 0.00044138 -0.0516173 20.1639 0.000484282
-0.0422792 20.24 0.000439489 -0.0631292 20.1698 0.000474371 -0.0537336 20.2609 0.000463824 -0.039885
20.1572 0.000494757 -0.0314863 20.2292 0.000438352 -0.0742382 20.1761 0.000457305 -0.0656674 20
0 0 20 0 0 20.1434 0.000464859 -0.00443434 20.2623 0.000495649
-0.00556153 20.2332 0.000435902 -0.0747084 20.269 0.000489567 -0.0157244 20.1491 0.000490634 -0.012006
20.2006 0.000425905 -0.0819771 20.2497 0.000431719 -0.0639857 20.1621 0.000479755 -0.0523542 20.2096
0.000417719 -0.0836295 20.1917 0.000436132 -0.080248 20.2606 0.000445585 -0.0522264 20.1565 0.000483944
-0.0411479 20.2704 0.000482137 -0.0279079 20.1501 0.000506598 -0.0211958 20.2389 0.000432391 -0.0753824
20.1681 0.000471406 -0.0640372 20.2189 0.000417594 -0.0851922 20.1832 0.000438623 -0.0784496 20.2708
0.000467713 -0.0402795 20.1501 0.000503877 -0.0306054 20.2285 0.000419976 -0.086651 20.1749 0.000446255
-0.0765899 20.2597 0.000434592 -0.064746 20.1547 0.000480958 -0.050952 20.2488 0.00042424 -0.0764219
20.1603 0.000477094 -0.0623748 20 0 0 20 0 0 20.1366
0.000470056 -0.00433214 20.2722 0.000493551 -0.00559338 20.2339 0.000416875 -0.087403 20.279 0.000486074
-0.0158474 20.1422 0.000499881 -0.0116657 20.2706 0.000448536 -0.0527527 20.1493 0.000491872 -0.0399964
20.1998 0.000399751 -0.0937243 20.2382 0.000414424 -0.0879972 20.1668 0.000459886 -0.0746813 20.2089
0.000388635 -0.0956402 20.1909 0.000413285 -0.0917192 20.2804 0.000477826 -0.0281344 20.1432 0.000517083
-0.0205821 20.2183 0.000387681 -0.0974552 20.1823 0.00041727 -0.0896373 20.2809 0.000462773 -0.0406053
20.1432 0.000516362 -0.0297156 20.2588 0.000425905 -0.0773463 20.1529 0.000479425 -0.0606852 20.2279
0.000389608 -0.0991539 20.2698 0.000436112 -0.0654041 20.174 0.000425462 -0.0874884 20.1475 0.000491264
-0.0495277 20.2482 0.00040638 -0.0892228 20.1591 0.000465068 -0.0727359 20 0 0
20 0 0 20.1299 0.000480256 -0.00422467 20.2821 0.000494128 -0.00561619 20.2353
0.000385488 -0.100329 20.2807 0.000442543 -0.0531898 20.1424 0.000505817 -0.0388306 20.2891 0.000483506
-0.0159417 20.1356 0.000502633 -0.0113155 20.2378 0.000384112 -0.100721 20.166 0.000439628 -0.0852857
20.1984 0.000377997 -0.10557 20.2076 0.000366295 -0.107767 20.1895 0.000393048 -0.10327 20.2905
0.000474945 -0.0283106 20.1366 0.000513614 -0.0199601 20.269 0.000425786 -0.0781472 20.1457 0.000491842
-0.0589712 20.2584 0.000407492 -0.0903147 20.1516 0.00046686 -0.0707592 20.2171 0.00036426 -0.109851
20.1808 0.000399059 -0.100885 20.28 0.000429511 -0.0659524 20.1406 0.000503408 -0.0480845 20.2911
0.00045949 -0.0408594 20.1365 0.000520308 -0.0288192 20.2479 0.000376207 -0.10215 20.1582 0.000445598
-0.083044 20.2269 0.000364554 -0.111806 20.1724 0.000408174 -0.0984283 20.291 0.000438902 -0.053532
20.1358 0.00051487 -0.037658 20 0 0 20 0 0 20.1236
0.000480254 -0.00411558 20.2921 0.000502163 -0.00562792 20.2368 0.00035847 -0.113597 20.2369 0.000358415
-0.113613 20.1643 0.000422977 -0.0959123 20.2369 0.000358185 -0.113949 20.2688 0.000406077 -0.0912614
20.1444 0.000478555 -0.0687568 20.2992 0.000490261 -0.0160043 20.1292 0.000497505 -0.0109659 20.2794
0.000418196 -0.0788159 20.1387 0.000503186 -0.0572389 20.2582 0.000376817 -0.103426 20.1507 0.000447829
-0.0807711 20.1962 0.000371807 -0.117583 20.2056 0.000361444 -0.12008 20.1871 0.000385532 -0.114973
20.3008 0.000481138 -0.028432 20.1302 0.000505615 -0.0193344 20.2152 0.000358684 -0.12245 20.1783
0.000392386 -0.112271 20.2904 0.000425581 -0.0663827 20.1339 0.000506437 -0.0466345 20.2472 0.000350695
-0.115262 20.1565 0.000430482 -0.093354 20.3013 0.000464936 -0.0410357 20.1301 0.000516894 -0.0279121
20.2251 0.00035728 -0.124678 20.1698 0.000402732 -0.10949 20.2793 0.000396752 -0.0920528 20.1374
0.000492521 -0.066737 20.2688 0.000374316 -0.104536 20.1435 0.000459553 -0.0784747 20.3014 0.000443709
-0.0537717 20.1294 0.000514156 -0.0364855 20.2353 0.000349425 -0.126743 20.29 0.000413802 -0.0793441
20.1616 0.000418523 -0.106646 20.132 0.000503878 -0.0554999 20.2577 0.000350584 -0.116737 20.149
0.000434891 -0.0907636 20 0 0 20 0 0 20.1174 0.000471914
-0.00400439 20.3022 0.000512047 -0.00562817 20.238 0.000347199 -0.12722 20.3095 0.000499071 -0.0160339
20.1231 0.000489841 -0.0106187 20.1938 0.00036201 -0.12996 20.2033 0.0003505 -0.132769 20.1846
0.000376604 -0.127029 20.3111 0.000488394 -0.0284953 20.1241 0.000499489 -0.0187048 20.3009 0.000429846
-0.0666855 20.1275 0.000503737 -0.0451932 20.2458 0.00034063 -0.128628 20.2131 0.000347485 -0.135438
20.1537 0.000427371 -0.103757 20.1757 0.000383757 -0.124 20.2795 0.000363308 -0.105466 20.1366
0.000476193 -0.0761627 20.3117 0.000471516 -0.0411286 20.124 0.000511294 -0.02699 20.29 0.000391273
-0.0926802 20.1307 0.000498524 -0.0647067 20.2684 0.000346907 -0.118024 20.1418 0.000449153 -0.0881485
20.2233 0.000345597 -0.137952 20.1671 0.000394914 -0.120888 20.3006 0.00041745 -0.0797209 20.1256
0.000501095 -0.0537614 20.3119 0.000450167 -0.053902 20.1232 0.000509208 -0.0353118 20.2565 0.000339474
-0.130319 20.1461 0.000433155 -0.100833 20.2337 0.000336894 -0.140288 20.1589 0.000411857 -0.117708
20 0 0 20 0 0 20.1116 0.000455608 -0.00387877 20.3124
0.000521531 -0.00561668 20.3198 0.000507555 -0.0160311 20.1172 0.000477973 -0.0102653 20.2397 0.000331608
-0.141492 20.1916 0.000344778 -0.142546 20.2903 0.00035669 -0.106207 20.3115 0.000435397 -0.0668525
20.2793 0.000335441 -0.119109 20.1213 0.000499894 -0.0437653 20.1299 0.00048656 -0.0738401 20.1348
0.000466655 -0.0855153 20.2012 0.000330713 -0.145696 20.1823 0.000362443 -0.139267 20.3214 0.000494767
-0.0285015 20.1182 0.000488641 -0.0180673 20.2443 0.00032753 -0.142421 20.1509 0.000421724 -0.114481
20.2111 0.00032736 -0.148688 20.3009 0.000394353 -0.0931309 20.1733 0.00037071 -0.135888 20.1242
0.000498116 -0.0626695 20.2674 0.000335332 -0.131798 20.1388 0.000448467 -0.0978812 20.3222 0.000475237
-0.0411384 20.1181 0.000500733 -0.0260469 20.2214 0.000325481 -0.151512 20.1647 0.000382346 -0.132422
20.3114 0.000422602 -0.0799338 20.1194 0.000497654 -0.0520253 20.2553 0.000326195 -0.144339 20.1433
0.000427584 -0.111218 20.3224 0.000451913 -0.0539233 20.1173 0.000500468 -0.0341326 20.232 0.000316899
-0.154143 20.1564 0.0003998 -0.128885 20.2903 0.000328785 -0.119975 20.1282 0.000476208 -0.0828734
20.3013 0.000359261 -0.106743 20.1235 0.0004884 -0.0715237 20.2786 0.000324744 -0.133049 20.1318
0.000464968 -0.0949095 20 0 0 20 0 0 20.106 0.000440859
-0.00373314 20.3225 0.00051672 -0.00559311 20.3302 0.000501844 -0.0159944 20.1117 0.000467779 -0.00989886
20.3222 0.00043681 -0.0668834 20.1154 0.000493844 -0.0423511 20.2421 0.000308379 -0.156392 20.2429
0.000307774 -0.156551 20.3118 0.000399858 -0.0933893 20.1888 0.000336838 -0.155427 20.1484 0.000410108
-0.125299 20.118 0.000495247 -0.0606267 20.2664 0.000321977 -0.146022 20.1986 0.000323025 -0.158941
20.3319 0.000488078 -0.0284481 20.1794 0.000354784 -0.151776 20.1126 0.000479017 -0.0174152 20.1359
0.000442 -0.107928 20.2426 0.000306241 -0.158433 20.2087 0.00031857 -0.162285 20.1703 0.000364812
-0.148021 20.3327 0.000465562 -0.0410622 20.1124 0.000491107 -0.0250727 20.2192 0.000315385 -0.165447
20.1616 0.000377769 -0.144174 20.3222 0.000424073 -0.079981 20.1135 0.000492653 -0.0502905 20.254
0.000306634 -0.15872 20.1408 0.000416156 -0.121679 20.3016 0.000330582 -0.120609 20.2899 0.000318526
-0.134054 20.1218 0.000478495 -0.0802476 20.1251 0.000472468 -0.0919333 20.333 0.000439752 -0.0538304
20.1116 0.000492263 -0.0329564 20.3125 0.000364607 -0.107058 20.1173 0.000486704 -0.0692217 20.2778
0.000310885 -0.14745 20.2299 0.000305791 -0.168399 20.1289 0.000459281 -0.10462 20.1533 0.000395918
-0.140254 20 0 0 20 0 0 20.3228 0.000400462 -0.0934511
20.1007 0.000434475 -0.00358175 20.3327 0.000513281 -0.00555898 20.1121 0.000491259 -0.0585725 20.333
0.000425169 -0.0667715 20.1097 0.000487917 -0.0409726 20.2654 0.000302101 -0.160629 20.1334 0.000430554
-0.118032 20.3406 0.000496808 -0.0159244 20.1063 0.000462033 -0.00952951 20.2411 0.000295912 -0.171109
20.1453 0.000407034 -0.136285 20.1855 0.000327187 -0.168601 20.1954 0.000312743 -0.172509 20.3423
0.000482349 -0.0283346 20.2447 0.000295252 -0.171885 20.1072 0.00047346 -0.0167242 20.1759 0.000346069
-0.164552 20.3014 0.000319524 -0.134798 20.2057 0.00030664 -0.176239 20.1187 0.000474596 -0.0889705
20.1668 0.000358021 -0.160392 20.3129 0.000334662 -0.120991 20.2894 0.00030396 -0.148605 20.1157
0.000477851 -0.0776515 20.1221 0.000469031 -0.101313 20.3432 0.000459046 -0.040899 20.1069 0.000486006
-0.0240245 20.3332 0.000412676 -0.0798567 20.1079 0.000487681 -0.0485609 20.2525 0.000293832 -0.173552
20.2164 0.000301982 -0.179769 20.1579 0.000372302 -0.156137 20.1376 0.000414268 -0.132281 20.3237
0.000363824 -0.107144 20.1114 0.000484074 -0.0669347 20.2771 0.000289599 -0.162256 20.1264 0.000449853
-0.114376 20.3436 0.000432799 -0.0536216 20.106 0.000487981 -0.0318087 20.2274 0.000291712 -0.183075
20.1495 0.000391001 -0.151808 20.3339 0.000387772 -0.0933122 20.1064 0.000487003 -0.0564951 20.2642
0.000288567 -0.175709 20.1303 0.000429744 -0.128249 20.3437 0.000417837 -0.0665146 20.1043 0.000484139
-0.0397095 20.313 0.000321859 -0.135259 20.3012 0.000304563 -0.149469 20.2388 0.000281266 -0.186118
20 0 0 20 0 0 20.0954 0.000427375 -0.00352359 20.3429
0.000512677 -0.00551342 20.1125 0.000474484 -0.086029 20.1157 0.00047231 -0.0980171 20.1414 0.000402684
-0.147429 20.351 0.000495229 -0.0158209 20.1012 0.000455465 -0.00924626 20.3244 0.000332846 -0.121112
20.289 0.000281407 -0.16358 20.1098 0.000476245 -0.0750886 20.182 0.000296041 -0.182226 20.1197
0.000464513 -0.110728 20.192 0.000278603 -0.186554 20.3527 0.000480106 -0.02816 20.1723 0.000318986
-0.177753 20.1021 0.000470095 -0.0159974 20.2474 0.000278871 -0.188141 20.2025 0.000271557 -0.190698
20.163 0.000333397 -0.173167 20.3441 0.000404781 -0.0795588 20.1026 0.000484112 -0.0468501 20.3537
0.000458241 -0.0406463 20.1016 0.000480601 -0.0228452 20.2505 0.000278013 -0.188866 20.335 0.000350404
-0.106998 20.1337 0.00041107 -0.143015 20.1058 0.000480851 -0.0646732 20.2762 0.00027618 -0.177557
20.1233 0.000449002 -0.12421 20.2134 0.00026674 -0.194623 20.1541 0.000348874 -0.168486 20.3542
0.000433368 -0.0532951 20.1005 0.000482635 -0.0307441 20.2247 0.000256539 -0.198311 20.1456 0.000368868
-0.163731 20.3132 0.000306278 -0.150016 20.1095 0.00047283 -0.0947372 20.3248 0.000319179 -0.135419
20.3011 0.000281626 -0.164581 20.3451 0.000379888 -0.09297 20.1066 0.00047324 -0.0831086 20.101
0.000483836 -0.0543383 20.1133 0.000471138 -0.107103 20.2626 0.000271328 -0.191301 20.1263 0.000427924
-0.138574 20.2494 0.000258841 -0.19743 20.3545 0.000417077 -0.0661115 20.0991 0.000482092 -0.038709
20.336 0.000319882 -0.120965 20.2884 0.000267942 -0.17907 20.2364 0.000245998 -0.201721 20.1043
0.00047401 -0.0725879 20.1375 0.000381523 -0.15893 20.1166 0.000462996 -0.120184 20 0
0 20 0 0 20.0911 0.000429165 -0.00388139 20.353 0.000506401 -0.00545556
20.3614 0.0004869 -0.0156816 20.0971 0.000456114 -0.009206 20.1784 0.000257221 -0.196215 20.1886
0.000238602 -0.201004 20.1686 0.000282316 -0.191276 20.3632 0.000471842 -0.02792 20.0971 0.000473324
-0.015388 20.3464 0.000343353 -0.106616 20.1002 0.000478461 -0.0624459 20.2749 0.000258233 -0.193396
20.355 0.000402531 -0.0790839 20.1993 0.000231201 -0.205602 20.0975 0.000482811 -0.0452104 20.1592
0.000298796 -0.18622 20.1193 0.000447764 -0.134132 20.2484 0.000242331 -0.204805 20.1297 0.000390652
-0.154095 20.2503 0.000241114 -0.205216 20.3642 0.000450213 -0.0402978 20.0974 0.000481656 -0.0218542
20.3253 0.000302064 -0.150219 20.3134 0.000283277 -0.165228 20.2104 0.00022598 -0.209966 20.1503
0.000315754 -0.18107 20.1036 0.000472069 -0.0914691 20.1072 0.000473044 -0.103509 20.3367 0.000306436
-0.135277 20.3009 0.000267429 -0.180226 20.1011 0.00047144 -0.0802192 20.1102 0.000469954 -0.116189
20.3649 0.000425311 -0.0528437 20.0956 0.000485054 -0.029789 20.222 0.000215198 -0.214077 20.1418
0.000337554 -0.17585 20.3562 0.000377866 -0.0924184 20.0957 0.00048228 -0.0520281 20.2608 0.000234228
-0.207547 20.1224 0.000408606 -0.149242 20.3476 0.000313254 -0.120546 20.2875 0.000249529 -0.195123
20.0989 0.000472389 -0.0702344 20.1126 0.000460676 -0.129711 20.3652 0.000409076 -0.0655539 20.0949
0.000485594 -0.0381034 20.2339 0.000204267 -0.217892 20.1337 0.00035204 -0.170588 20 0
0 20.3631 0.000512106 -0.00538625 20.3717 0.000489201 -0.0155061 20.3258 0.000277643 -0.16549
20.3577 0.000341938 -0.105991 20.1014 0.000473225 -0.0999496 20.2735 0.000218334 -0.209917 20.0948
0.00047745 -0.0602773 20.1746 0.000224456 -0.210476 20.3374 0.000287975 -0.150083 20.1153 0.000430912
-0.144399 20.3135 0.000268053 -0.180989 20.1851 0.000206053 -0.215772 20.1647 0.000249704 -0.205026
20.3736 0.000473922 -0.0276151 20.098 0.000470415 -0.0882107 20.1042 0.00047224 -0.112235 20.366
0.000393694 -0.0784218 20.0927 0.000488217 -0.0437789 20.2463 0.000200083 -0.221358 20.126 0.000362369
-0.165295 20.1959 0.000197635 -0.22087 20.1553 0.000267894 -0.199457 20.3486 0.000298948 -0.134826
20.3747 0.000450438 -0.0398571 20.3004 0.000247973 -0.196456 20.0959 0.00047017 -0.0773898 20.1062
0.000466846 -0.125322 20.2073 0.000190825 -0.225725 20.2526 0.000195621 -0.222895 20.1463 0.000286649
-0.193794 20.3754 0.000423575 -0.0522715 20.3673 0.000367722 -0.091645 20.0914 0.000486107 -0.050106
20.2591 0.000191111 -0.224448 20.2191 0.000179299 -0.230306 20.1377 0.00030975 -0.188064 20.3592
0.000311341 -0.11985 20.2866 0.000207625 -0.211884 20.1187 0.000381163 -0.159999 20.0938 0.000472759
-0.0682063 20.1087 0.000448414 -0.139587 20.3759 0.000408198 -0.064846 20.3384 0.00026248 -0.165368
20.3263 0.000262234 -0.181324 20.2314 0.000167977 -0.234575 20.0959 0.000471554 -0.0964423 20.0984
0.00047163 -0.108328 20.1296 0.000326044 -0.182293 20.3497 0.000279942 -0.1496 20.3135 0.000247643
-0.197356 20.0927 0.000469285 -0.0849261 20.1001 0.000468865 -0.120973 20.3691 0.000331103 -0.105109
20.2722 0.000173901 -0.227131 20.0899 0.000483711 -0.0582913 20 0 0 20
0 0 20.3731 0.000524212 -0.00530469 20.0832 0.000431489 -0.00496743 20.1118 0.00040555
-0.154723 20.3819 0.000498862 -0.0152933 20.3768 0.0003927 -0.0775786 20.1702 0.000200474 -0.225149
20.2441 0.000162522 -0.238473 20.3605 0.000296021 -0.134059 20.2999 0.000205609 -0.213418 20.1808
0.000182259 -0.23099 20.1601 0.000225246 -0.219152 20.3839 0.000482575 -0.027245 20.091 0.000471213
-0.0747206 20.1219 0.000338623 -0.176506 20.1023 0.00045801 -0.134814 20.0871 0.000469549 -0.0150381
20.1919 0.000172323 -0.236633 20.1505 0.000244721 -0.213035 20.385 0.00045871 -0.0393245 20.2036
0.000163269 -0.242024 20.1414 0.000265416 -0.206827 20.2543 0.000154869 -0.241161 20.3708 0.000300575
-0.118859 20.2857 0.000162304 -0.229373 20.0897 0.000478307 -0.066879 20.3784 0.000364671 -0.0906581
20.2573 0.000152609 -0.241955 20.3393 0.00024739 -0.181226 20.1052 0.000427056 -0.149486 20.3859
0.000431686 -0.0515787 20.1146 0.000359499 -0.170727 20.093 0.000469325 -0.104498 20.0858 0.000482606
-0.0283148 20.2157 0.000150121 -0.247118 20.3267 0.000241911 -0.19778 20.351 0.000255135 -0.164857
20.1327 0.000290308 -0.200554 20.0905 0.000470313 -0.0930037 20.0944 0.00046752 -0.116665 20.3135
0.00020548 -0.214475 20.362 0.000276817 -0.148758 20.0876 0.000470226 -0.0815806 20.0963 0.000461901
-0.130085 20.3866 0.000415998 -0.0639873 20.2284 0.000137631 -0.251885 20.1245 0.000309041 -0.194244
20.3804 0.000326845 -0.103978 20.2708 0.000135989 -0.244996 20.1078 0.000385587 -0.164977 20.2995
0.000160215 -0.231138 20.3724 0.000286088 -0.132956 20.0862 0.000479417 -0.0724347 20.099 0.000440154
-0.144305 20 0 0 20.383 0.000539509 -0.00521033 20.392 0.000512764 -0.0150451
20.3876 0.000399964 -0.0765539 20.2415 0.000130588 -0.256264 20.1168 0.000324163 -0.187934 20.0826
0.000485145 -0.0411943 20.1651 0.000173779 -0.240342 20.1759 0.000154907 -0.246768 20.1547 0.000199718
-0.23376 20.394 0.000494474 -0.0268121 20.1872 0.000144721 -0.252996 20.3402 0.000227221 -0.197718
20.3523 0.000239403 -0.18069 20.145 0.000220003 -0.227061 20.0879 0.000467959 -0.100818 20.089
0.00046502 -0.112411 20.3953 0.000470116 -0.0387015 20.3272 0.000199119 -0.215006 20.3637 0.000252553
-0.163943 20.2848 0.00012479 -0.247554 20.1992 0.000134789 -0.258971 20.3824 0.000296408 -0.117579
20.0854 0.00046958 -0.0896655 20.0906 0.000463952 -0.125396 20.1358 0.000241604 -0.220277 20.1013
0.000408142 -0.159272 20.2544 0.000120417 -0.259968 20.3894 0.000371735 -0.0894575 20.2551 0.000119826
-0.260183 20.1094 0.000347005 -0.181643 20.3963 0.00044293 -0.050768 20.2117 0.000119975 -0.264626
20.3136 0.000160018 -0.232383 20.3743 0.000265964 -0.147538 20.127 0.000268366 -0.213432 20.0835
0.000476445 -0.078869 20.0932 0.000446597 -0.139194 20.3971 0.000426382 -0.0629817 20.2247 0.000105945
-0.269938 20.1188 0.000289223 -0.206563 20.2692 0.000103957 -0.263621 20.3917 0.00033441 -0.102597
20.2991 0.000121833 -0.249591 20.3843 0.000282692 -0.131526 20.1025 0.000374154 -0.17539 20.0802
0.000482824 -0.0547484 20.0951 0.00042278 -0.15364 20.3537 0.000218114 -0.197171 20.084 0.000463687
-0.108235 20.3412 0.000184018 -0.214994 20.3654 0.000235755 -0.179708 20.083 0.000467446 -0.0974473
20.0852 0.000464094 -0.120747 20.3983 0.000409802 -0.0753502 20.2533 9.81673e-05 -0.272547 20
0 0 20 0 0 20.3928 0.000540337 -0.00510287 20.2383 9.80389e-05
-0.274843 20.0757 0.000428424 -0.00613714 20.111 0.000305591 -0.199713 20.4021 0.000514074 -0.0147595