# vtk DataFile Version 2.0
track0
ASCII
DATASET POLYDATA
POINTS 15215 float
-1.001 -0.05 0.0011
-1.00088 -0.05 0.0011
-1.00076 -0.05 0.00109999
-1.00064 -0.05 0.00109999
-1.00052 -0.05 0.00109999
-1.0004 -0.05 0.00109998
-0.975398 -0.05 0.00109925
-0.9504 -0.0499999 0.00109824
-0.925402 -0.0499999 0.00109723
-0.900404 -0.0499998 0.00109623
-0.875406 -0.0499998 0.00109522
-0.850407 -0.0499998 0.0010941
-0.825407 -0.0499996 0.00109261
-0.800408 -0.0499995 0.00109113
-0.775408 -0.0499993 0.00108966
-0.750409 -0.0499992 0.00108818
-0.737914 -0.0499991 0.00108725
-0.72542 -0.0499989 0.00108572
-0.712925 -0.0499987 0.00108419
-0.700431 -0.0499986 0.00108266
-0.687936 -0.0499984 0.00108114
-0.675431 -0.0499984 0.00108006
-0.662926 -0.0499982 0.00107837
-0.65042 -0.049998 0.00107669
-0.637915 -0.0499978 0.001075
-0.62541 -0.0499976 0.00107332
-0.612898 -0.0499974 0.00107202
-0.600387 -0.0499971 0.00107009
-0.587876 -0.0499968 0.00106817
-0.575365 -0.0499966 0.00106625
-0.562854 -0.0499963 0.00106433
-0.550338 -0.0499964 0.00106277
-0.537822 -0.049996 0.00106061
-0.525307 -0.0499956 0.00105845
-0.512791 -0.0499953 0.0010563
-0.500275 -0.0499949 0.00105415
-0.487751 -0.0499945 0.00105236
-0.475226 -0.0499941 0.00105005
-0.462701 -0.0499936 0.00104774
-0.450177 -0.0499931 0.00104544
-0.437652 -0.0499926 0.00104314
-0.42513 -0.0499927 0.00104121
-0.412607 -0.0499921 0.00103877
-0.400084 -0.0499914 0.00103633
-0.387562 -0.0499908 0.0010339
-0.375039 -0.0499902 0.00103147
-0.362534 -0.0499894 0.00102968
-0.350028 -0.0499886 0.00102804
-0.337522 -0.0499878 0.00102641
-0.325017 -0.049987 0.00102477
-0.312511 -0.0499862 0.00102315
-0.306259 -0.0499857 0.00102239
-0.300007 -0.0499847 0.00102109
-0.293755 -0.0499838 0.00101978
-0.287503 -0.0499829 0.00101848
-0.281251 -0.0499819 0.00101718
-0.275 -0.0499807 0.00101654
-0.26875 -0.0499796 0.00101555
-0.2625 -0.0499785 0.00101456
-0.25625 -0.0499774 0.00101357
-0.25 -0.0499762 0.00101258
-0.24375 -0.0499756 0.00101217
-0.2375 -0.0499743 0.00101146
-0.23125 -0.0499729 0.00101074
-0.225 -0.0499715 0.00101002
-0.21875 -0.0499701 0.00100931
-0.2125 -0.0499686 0.00100916
-0.20625 -0.0499669 0.00100878
-0.2 -0.0499652 0.00100841
-0.19375 -0.0499636 0.00100804
-0.1875 -0.0499619 0.00100766
-0.18125 -0.0499611 0.00100789
-0.175 -0.0499592 0.00100797
-0.16875 -0.0499572 0.00100805
-0.1625 -0.0499552 0.00100814
-0.15625 -0.0499532 0.00100822
-0.153125 -0.0499521 0.00100839
-0.15 -0.0499498 0.00100867
-0.146875 -0.0499476 0.00100894
-0.14375 -0.0499453 0.00100921
-0.140625 -0.0499431 0.00100948
-0.1375 -0.0499411 0.00100976
-0.134374 -0.0499385 0.00101024
-0.131249 -0.0499359 0.00101071
-0.128124 -0.0499334 0.00101119
-0.124999 -0.0499308 0.00101167
-0.121874 -0.0499294 0.00101207
-0.118749 -0.0499265 0.00101272
-0.115624 -0.0499236 0.00101336
-0.112499 -0.0499208 0.00101401
-0.109374 -0.0499179 0.00101466
-0.106249 -0.0499157 0.0010152
-0.103124 -0.0499126 0.00101597
-0.0999989 -0.0499095 0.00101675
-0.0968739 -0.0499064 0.00101752
-0.0937488 -0.0499033 0.0010183
-0.0906239 -0.0499016 0.00101893
-0.0874989 -0.0498983 0.00101982
-0.0843739 -0.049895 0.00102071
-0.0812489 -0.0498916 0.00102161
-0.0781239 -0.0498883 0.0010225
-0.0749989 -0.0498858 0.00102326
-0.0718739 -0.0498823 0.00102426
-0.0687489 -0.0498787 0.00102526
-0.0656238 -0.0498751 0.00102626
-0.0624988 -0.0498716 0.00102726
-0.0593738 -0.0498698 0.0010281
-0.0562488 -0.049866 0.00102921
-0.0531238 -0.0498622 0.00103032
-0.0499988 -0.0498584 0.00103144
-0.0468738 -0.0498546 0.00103255
-0.0437488 -0.0498519 0.00103351
-0.0406238 -0.0498479 0.00103472
-0.0374988 -0.0498438 0.00103594
-0.0343738 -0.0498398 0.00103716
-0.0312488 -0.0498358 0.00103838
-0.0281239 -0.0498338 0.00103942
-0.0249989 -0.0498296 0.00104074
-0.0218739 -0.0498253 0.00104205
-0.018749 -0.049821 0.00104337
-0.015624 -0.0498168 0.00104469
-0.012499 -0.0498138 0.00104585
-0.00937393 -0.0498093 0.00104727
-0.00624889 -0.0498049 0.00104868
-0.00312386 -0.0498004 0.0010501
1.18298e-06 -0.0497959 0.00105152
0.00312621 -0.0497937 0.00105276
0.00625124 -0.049789 0.00105427
0.00937627 -0.0497843 0.00105578
0.0125013 -0.0497795 0.0010573
0.0156263 -0.0497748 0.00105881
0.0187516 -0.0497716 0.00106015
0.0218768 -0.0497667 0.00106176
0.025002 -0.0497618 0.00106336
0.0281273 -0.0497568 0.00106496
0.0312525 -0.0497518 0.00106657
0.0343793 -0.0497495 0.00106799
0.037506 -0.0497443 0.00106968
0.0406327 -0.0497392 0.00107138
0.0437595 -0.049734 0.00107307
0.0468862 -0.0497288 0.00107477
0.050011 -0.0497253 0.00107629
0.0531358 -0.0497199 0.00107806
0.0562606 -0.0497146 0.00107984
0.0593853 -0.0497092 0.00108162
0.0625101 -0.0497037 0.0010834
0.065635 -0.0497012 0.00108499
0.0687598 -0.0496956 0.00108684
0.0718846 -0.04969 0.0010887
0.0750094 -0.0496844 0.00109056
0.0781342 -0.0496787 0.00109243
0.0812601 -0.049675 0.0010941
0.084386 -0.0496692 0.00109604
0.0875119 -0.0496633 0.00109797
0.0906377 -0.0496575 0.00109991
0.0937636 -0.0496516 0.00110186
0.0968915 -0.0496489 0.0011036
0.100019 -0.0496429 0.00110561
0.103147 -0.0496368 0.00110762
0.106275 -0.0496307 0.00110963
0.109403 -0.0496247 0.00111165
0.112529 -0.0496207 0.00111347
0.115655 -0.0496144 0.00111555
0.118781 -0.0496082 0.00111763
0.121907 -0.0496019 0.00111971
0.125032 -0.0495956 0.0011218
0.128157 -0.0495927 0.00112368
0.131283 -0.0495862 0.00112582
0.134408 -0.0495798 0.00112797
0.137533 -0.0495733 0.00113012
0.140658 -0.0495668 0.00113227
0.143784 -0.0495626 0.00113421
0.146909 -0.0495559 0.00113641
0.150035 -0.0495492 0.00113862
0.153161 -0.0495425 0.00114083
0.156287 -0.0495358 0.00114304
0.159413 -0.0495327 0.00114504
0.16254 -0.0495259 0.0011473
0.165667 -0.049519 0.00114956
0.168794 -0.049512 0.00115183
0.171921 -0.0495051 0.0011541
0.175047 -0.0495007 0.00115615
0.178172 -0.0494936 0.00115846
0.181298 -0.0494865 0.00116078
0.184424 -0.0494794 0.0011631
0.18755 -0.0494723 0.00116542
0.190674 -0.049469 0.00116751
0.193799 -0.0494618 0.00116987
0.196923 -0.0494545 0.00117223
0.200048 -0.0494472 0.0011746
0.203172 -0.0494399 0.00117697
0.206296 -0.0494352 0.00117909
0.209421 -0.0494278 0.00118149
0.212545 -0.0494203 0.00118389
0.215669 -0.0494128 0.0011863
0.218794 -0.0494053 0.00118871
0.221919 -0.049402 0.00119088
0.225045 -0.0493943 0.00119332
0.22817 -0.0493867 0.00119576
0.231296 -0.049379 0.0011982
0.234421 -0.0493713 0.00120065
0.237548 -0.0493665 0.00120285
0.240674 -0.0493587 0.00120532
0.2438 -0.0493508 0.0012078
0.246927 -0.049343 0.00121028
0.250053 -0.0493352 0.00121276
0.25318 -0.0493316 0.00121499
0.256307 -0.0493237 0.00121749
0.259434 -0.0493157 0.00122
0.262561 -0.0493077 0.00122251
0.265688 -0.0492996 0.00122503
0.268813 -0.0492946 0.00122728
0.271938 -0.0492865 0.0012298
0.275062 -0.0492783 0.00123233
0.278187 -0.0492702 0.00123487
0.281312 -0.049262 0.00123741
0.284435 -0.0492584 0.00123968
0.287558 -0.0492501 0.00124223
0.290681 -0.0492418 0.00124477
0.293804 -0.0492335 0.00124733
0.296927 -0.0492252 0.00124989
0.30005 -0.04922 0.00125216
0.303174 -0.0492116 0.00125472
0.306297 -0.0492032 0.00125728
0.309421 -0.0491948 0.00125985
0.312544 -0.0491863 0.00126242
0.315668 -0.0491826 0.00126472
0.318793 -0.0491741 0.00126729
0.321917 -0.0491655 0.00126987
0.325041 -0.049157 0.00127245
0.328166 -0.0491484 0.00127503
0.331291 -0.0491431 0.00127733
0.334416 -0.0491344 0.0012799
0.337541 -0.0491257 0.00128249
0.340666 -0.0491171 0.00128508
0.343791 -0.0491084 0.00128767
0.346916 -0.0491045 0.00128998
0.350042 -0.0490958 0.00129257
0.353168 -0.049087 0.00129516
0.356294 -0.0490782 0.00129776
0.35942 -0.0490694 0.00130036
0.362549 -0.0490639 0.00130266
0.365679 -0.049055 0.00130525
0.368808 -0.0490461 0.00130785
0.371938 -0.0490372 0.00131045
0.375068 -0.0490283 0.00131305
0.378205 -0.0490243 0.00131538
0.381343 -0.0490153 0.00131798
0.384481 -0.0490063 0.00132058
0.387619 -0.0489973 0.00132319
0.390756 -0.0489882 0.0013258
0.393889 -0.0489826 0.0013281
0.397022 -0.0489735 0.00133069
0.400155 -0.0489645 0.00133328
0.403288 -0.0489554 0.00133588
0.406421 -0.0489463 0.00133848
0.409551 -0.0489422 0.00134079
0.412682 -0.0489331 0.00134337
0.415813 -0.0489239 0.00134596
0.418943 -0.0489148 0.00134855
0.422074 -0.0489056 0.00135115
0.425204 -0.0488999 0.00135343
0.428334 -0.0488907 0.001356
0.431464 -0.0488814 0.00135858
0.434594 -0.0488722 0.00136116
0.437724 -0.0488629 0.00136375
0.440854 -0.0488588 0.00136604
0.443984 -0.0488495 0.00136861
0.447114 -0.0488402 0.00137117
0.450244 -0.0488309 0.00137375
0.453374 -0.0488216 0.00137633
0.456504 -0.0488158 0.00137859
0.459634 -0.0488064 0.00138114
0.462763 -0.0487971 0.00138369
0.465893 -0.0487877 0.00138626
0.469023 -0.0487783 0.00138882
0.472152 -0.0487742 0.00139109
0.475282 -0.0487648 0.00139363
0.478411 -0.0487553 0.00139617
0.481541 -0.0487459 0.00139872
0.48467 -0.0487364 0.00140127
0.4878 -0.0487306 0.0014035
0.490929 -0.0487211 0.00140602
0.494058 -0.0487116 0.00140854
0.497187 -0.0487022 0.00141107
0.500317 -0.0486927 0.00141361
0.503446 -0.0486885 0.00141584
0.506575 -0.048679 0.00141835
0.509704 -0.0486695 0.00142085
0.512833 -0.0486599 0.00142337
0.515962 -0.0486504 0.00142589
0.519091 -0.0486445 0.00142808
0.52222 -0.0486349 0.00143056
0.525348 -0.0486254 0.00143305
0.528477 -0.0486158 0.00143554
0.531606 -0.0486062 0.00143804
0.534734 -0.048602 0.00144024
0.537863 -0.0485925 0.0014427
0.540992 -0.0485829 0.00144517
0.54412 -0.0485733 0.00144764
0.547249 -0.0485637 0.00145011
0.550377 -0.0485577 0.00145227
0.553506 -0.0485481 0.00145471
0.556634 -0.0485385 0.00145715
0.559762 -0.0485289 0.0014596
0.562891 -0.0485193 0.00146205
0.566019 -0.0485151 0.0014642
0.569147 -0.0485055 0.00146662
0.572275 -0.0484959 0.00146904
0.575403 -0.0484862 0.00147146
0.578532 -0.0484766 0.00147389
0.58166 -0.0484706 0.001476
0.584788 -0.048461 0.00147839
0.587915 -0.0484514 0.00148078
0.591043 -0.0484417 0.00148318
0.594171 -0.0484321 0.00148558
0.597299 -0.0484279 0.00148769
0.600427 -0.0484182 0.00149006
0.603555 -0.0484086 0.00149244
[...]
POINT_DATA 15215
 FIELD attributes 2
p 1 15215 float
-4.94197 -4.94354 -4.94511 -4.94668 -4.94825 -4.94982 -5.46233 -5.97411 -6.4961 -7.0181 -7.53709 -8.42985 -9.32757 -10.2253 -11.121 -11.9744 -12.551 -13.1411 -13.7313 -14.3214 -14.9795 -15.812 -16.6363 -17.4606 -18.285 -19.106 -20.0622 -21.0161 -21.9699 -22.9237 -23.8834 -25.0503 -26.208 -27.3658 -28.5236 -29.6842 -31.0851 -32.4857 -33.8864 -35.287 -36.704 -38.3643 -40.0149 -41.6656 -43.3162 -44.9781 -46.8085 -48.6398 -50.4711 -52.3024 -54.4411 -55.2666 -56.1268 -57.0899 -58.0531 -59.0343 -59.9329 -60.8295 -61.7262 -62.6358 -63.542 -64.2904 -65.0401 -65.7783 -66.5164 -67.2577 -67.8897 -68.5298 -69.1698 -69.8167 -70.4726 -71.006 -71.5398 -72.0546 -72.5588 -73.0242 -73.1253 -73.2826 -73.44 -73.5974 -73.8186 -73.9609 -74.115 -74.2691 -74.4232 -74.6055 -74.7025 -74.8099 -74.9173 -75.0246 -75.1564 -75.2168 -75.2773 -75.3378 -75.3982 -75.464 -75.4759 -75.4899 -75.504 -75.5181 -75.5363 -75.5046 -75.4725 -75.4403 -75.4081 -75.377 -75.3001 -75.2232 -75.1464 -75.0695 -74.9937 -74.8758 -74.7563 -74.6367 -74.5172 -74.3969 -74.2376 -74.0772 -73.9167 -73.7563 -73.5955 -73.3988 -73.1993 -72.9997 -72.8002 -72.599 -72.3643 -72.1278 -71.8913 -71.6548 -71.4177 -71.1505 -70.8795 -70.6086 -70.3376 -70.0647 -69.7642 -69.4615 -69.1588 -68.8561 -68.5529 -68.2261 -67.8951 -67.5641 -67.2331 -66.9003 -66.5465 -66.1906 -65.8346 -65.4787 -65.1225 -64.7486 -64.3706 -63.9925 -63.6145 -63.2346 -62.8398 -62.4428 -62.0459 -61.6489 -61.2517 -60.8432 -60.4306 -60.0181 -59.6056 -59.1913 -58.7679 -58.3424 -57.9169 -57.4914 -57.0654 -56.6333 -56.1971 -55.7609 -55.3248 -54.8868 -54.4447 -54.0005 -53.5563 -53.1121 -52.6676 -52.2221 -51.7728 -51.3234 -50.874 -50.4231 -49.9734 -49.5216 -49.0698 -48.618 -48.1662 -47.718 -47.2661 -46.8142 -46.3623 -45.909 -45.4611 -45.0111 -44.5612 -44.1113 -43.6612 -43.2185 -42.7724 -42.3263 -41.8802 -41.4327 -40.9941 -40.5536 -40.113 -39.6725 -39.2318 -38.8017 -38.3685 -37.9353 -37.5021 -37.0677 -36.6449 -36.2204 -35.7958 -35.3713 -34.9464 -34.5344 -34.1195 -33.7046 -33.2897 -32.8736 -32.471 -32.0666 -31.6622 -31.2578 -30.8529 -30.4624 -30.0693 -29.6762 -29.2831 -28.8888 -28.5094 -28.1283 -27.7471 -27.366 -26.9842 -26.6178 -26.2491 -25.8803 -25.5115 -25.1416 -24.7872 -24.431 -24.0748 -23.7187 -23.3618 -23.0217 -22.6794 -22.337 -21.9947 -21.6512 -21.3246 -20.9963 -20.6681 -20.3398 -20.0108 -19.6988 -19.3848 -19.0707 -18.7566 -18.4414 -18.1432 -17.8432 -17.5433 -17.2434 -16.9426 -16.6587 -16.3727 -16.0867 -15.8008 -15.5135 -15.2431 -14.9708 -14.6986 -14.4264 -14.153 -13.8963 -13.6375 -13.3787 -13.12 -12.8599 -12.6161 -12.3706 -12.125 -11.8794 -11.6327 -11.4019 -11.1692 -10.9364 -10.7037 -10.4695 -10.2509 -10.0305 -9.81012 -9.58972 -9.36792 -9.16136 -8.95264 -8.74392 -8.5352 -8.32488 -8.12905 -7.9308 -7.73255 -7.5343 -7.33443 -7.14863 -6.95982 -6.77101 -6.5822 -6.39163 -6.21545 -6.03931 -5.86316 -5.68701 -5.5113 -5.34906 -5.18794 -5.02682 -4.86569 -4.70557 -4.55612 -4.4065 -4.25688 -4.10726 -3.95763 -3.81733 -3.67576 -3.53419 -3.39262 -3.25033 -3.11816 -2.98669 -2.85522 -2.72375 -2.59301 -2.47352 -2.35597 -2.23843 -2.12089 -2.00431 -1.89759 -1.78877 -1.67994 -1.57111 -1.45956 -1.35682 -1.25092 -1.14502 -1.03912 -0.930235 -0.831629 -0.730881 -0.630131 -0.529369 -0.426862 -0.335173 -0.241967 -0.148761 -0.0555556 0.038852 0.123274 0.208992 0.29471 0.380427 0.467309 0.545086 0.62413 0.703173 0.782216 0.862416 0.934259 1.00723 1.08019 1.15316 1.22721 1.29342 1.36074 1.42806 1.49537 1.56374 1.62475 1.68674 1.74874 1.81073 1.87365 1.92967 1.98661 2.04356 2.1005 2.15833 2.20965 2.26176 2.31386 2.36596 2.41878 2.4655 2.51298 2.56047 2.60795 2.65618 2.69859 2.74163 2.78467 2.8277 2.87136 2.90949 2.94824 2.98699 3.02574 3.06514 3.0993 3.13398 3.16866 3.20334 3.2386 3.2689 3.29976 3.33062 3.36148 3.39293 3.41978 3.44714 3.4745 3.50187 3.52983 3.55316 3.57632 3.59949 3.62265 3.64596 3.66462 3.68376 3.70289 3.72202 3.74308 3.76073 3.77928 3.79783 3.81637 3.83477 3.86188 3.90056 3.93778 3.97393 4.00853 4.03216 4.05723 4.081 4.10319 4.12727 4.13961 4.15083 4.163 4.17604 4.19067 4.20336 4.22488 4.24545 4.26502 4.29297 4.3228 4.36995 4.42361 4.47728 4.52254 4.54666 4.56892 4.59198 4.61504 4.63325 4.64619 4.65488 4.66357 4.6716 4.67349 4.66175 4.64758 4.63394 4.62029 4.60221 4.56432 4.52239 4.48046 4.4369 4.38614 4.33511 4.30047 4.26901 4.23754 4.21154 4.04136 4.03563 4.02874 4.02184 4.00887 4.0231 4.02567 4.02824 4.03301 4.02576 3.96246 3.87995 3.76082 3.64168 3.51079 3.27673 3.03699 2.79724 2.62039 2.44847 2.25628 2.08635 1.91642 1.70796 1.63321 1.8083 1.97906 2.14982 2.32058 2.30631 2.23063 2.15024 2.06986 1.98949 1.90026 1.59816 1.3014 1.00464 0.707882 0.505344 0.289213 0.0946081 -0.0999986 -0.294607 -0.382454 -0.209076 -0.0316169 0.14584 0.323294 0.436777 0.597926 0.764542 0.931158 1.09777 1.25447 1.35424 1.44108 1.52792 1.61476 1.69164 1.6403 1.57715 1.514 1.45085 1.31436 1.17449 1.02526 0.876023 0.72679 0.598161 0.516962 0.431302 0.345642 0.259984 0.188181 0.174676 0.158499 0.142323 0.126148 0.113319 0.112984 0.110509 0.108034 0.10556 0.103966 0.101469 0.0972698 0.0930704 0.0888712 0.0854192 0.0832594 0.0797804 0.0763015 0.0728228 0.069847 0.0688325 0.0667345 0.0646365 0.0625387 0.0607627 0.0611711 0.0607251 0.0602792 0.0598333 0.0597422 0.0545205 0.0484469 0.0424045 0.0363938 0.0313667
-4.75323 -4.75478 -4.75634 -4.75789 -4.75944 -4.761 -5.2896 -5.81819 -6.33293 -6.78662 -7.2403 -8.02562 -8.81105 -9.64339 -10.9202 -12.1575 -12.6246 -13.1262 -13.6278 -14.1294 -14.7911 -15.6233 -16.4234 -17.2236 -18.0237 -18.8154 -19.7924 -20.7463 -21.7001 -22.654 -23.5922 -24.7514 -25.9285 -27.1056 -28.2827 -29.4734 -30.8864 -32.3368 -33.7871 -35.2375 -36.6966 -38.3211 -40.0507 -41.7803 -43.5103 -45.2922 -47.1294 -49.1451 -51.161 -53.1944 -55.6697 -56.553 -57.4356 -58.4543 -59.3843 -60.3005 -61.3146 -62.3192 -63.2396 -64.0547 -64.8572 -65.6855 -66.5125 -67.314 -68.0556 -68.7918 -69.4904 -70.1883 -70.8783 -71.5229 -72.1629 -72.7225 -73.2808 -73.8191 -74.3822 -74.9528 -75.0712 -75.2261 -75.3771 -75.5281 -75.7379 -75.8743 -76.0224 -76.1706 -76.3263 -76.5139 -76.6234 -76.7312 -76.8331 -76.9351 -77.0497 -77.1041 -77.1609 -77.2177 -77.2774 -77.3441 -77.3539 -77.3661 -77.3777 -77.3893 -77.405 -77.3704 -77.3378 -77.3053 -77.2728 -77.242 -77.1604 -77.0805 -77.0018 -76.9232 -76.8459 -76.7214 -76.5986 -76.4759 -76.3507 -76.225 -76.0543 -75.8856 -75.7208 -75.556 -75.3918 -75.1854 -74.9803 -74.7753 -74.5645 -74.3528 -74.1007 -73.8499 -73.6063 -73.3626 -73.1192 -72.8395 -72.5604 -72.2813 -71.9929 -71.7041 -71.69 -71.6759 -71.6619 -71.6478 -71.6338 -71.3249 -71.0173 -70.7186 -70.4199 -70.1213 -69.7798 -69.4391 -69.0971 -68.7455 -68.3955 -68.0173 -67.64 -67.2712 -66.9051 -66.5396 -66.1486 -65.7604 -65.3679 -64.9677 -64.5711 -64.1501 -63.7309 -63.3176 -62.91 -62.5037 -62.075 -61.6513 -61.2204 -60.7847 -60.3552 -59.9037 -59.4554 -59.0099 -58.573 -58.1387 -57.6833 -57.236 -56.7782 -56.319 -55.8688 -55.3972 -54.9308 -54.4643 -54.0085 -53.5573 -53.0853 -52.623 -52.1513 -51.6796 -51.2201 -50.7394 -50.2665 -49.7937 -49.3272 -48.8711 -48.3937 -47.9265 -47.454 -46.9815 -46.5246 -46.0451 -45.5759 -45.1066 -44.6401 -44.1892 -43.715 -43.2519 -42.7869 -42.322 -41.8759 -41.4048 -40.9466 -40.4885 -40.0304 -39.5921 -39.1288 -38.6795 -38.2302 -37.7809 -37.348 -36.8963 -36.4566 -36.0169 -35.577 -35.1487 -34.7096 -34.2801 -33.8508 -33.4215 -33.0009 -32.5765 -32.1588 -31.7411 -31.323 -30.9087 -30.4983 -30.0924 -29.6869 -29.2815 -28.8769 -28.78 -28.6837 -28.5875 -28.4913 -28.3952 -28.0981 -27.801 -27.5039 -27.2058 -26.9081 -26.5248 -26.1436 -25.7629 -25.3823 -25.0023 -24.6328 -24.2664 -23.8999 -23.5328 -23.1672 -22.8105 -22.4584 -22.1069 -21.7555 -21.406 -21.0634 -20.7268 -20.3901 -20.0527 -19.7185 -19.3896 -19.0672 -18.7455 -18.4238 -18.1054 -17.7913 -17.4837 -17.1769 -16.8701 -16.5664 -16.2677 -15.9731 -15.6809 -15.3901 -15.1013 -14.8172 -14.5364 -14.2586 -13.9823 -13.7077 -13.4383 -13.1705 -12.9068 -12.6456 -12.3853 -12.1298 -11.8749 -11.6248 -11.3776 -11.1306 -10.889 -10.6474 -10.4107 -10.1776 -9.94456 -9.71598 -9.4874 -9.26354 -9.04332 -8.82311 -8.60793 -8.39276 -8.18177 -7.97485 -7.76794 -7.56512 -7.3623 -7.16374 -6.9691 -6.77446 -6.58457 -6.39468 -6.20866 -6.02661 -5.84456 -5.66641 -5.48825 -5.31409 -5.14336 -4.97263 -4.80658 -4.64099 -4.47838 -4.31866 -4.15957 -4.00409 -3.84968 -3.69787 -3.54794 -3.39899 -3.25432 -3.11111 -2.96958 -2.82958 -2.6913 -2.55591 -2.42276 -2.29095 -2.15991 -2.03074 -1.90507 -1.78181 -1.6592 -1.53698 -1.41751 -1.29996 -1.18598 -1.07218 -0.958383 -0.847091 -0.738785 -0.633402 -0.527988 -0.422567 -0.319574 -0.219273 -0.121774 -0.0242783 0.073205 0.169234 0.261181 0.351314 0.441368 0.531412 0.620282 0.704968 0.788117 0.871268 0.954587 1.03733 1.11507 1.19207 1.26883 1.34559 1.42208 1.46989 1.5173 1.56471 1.61213 1.66008 1.68356 1.70703 1.73051 1.75399 1.77698 1.84314 1.90886 1.97438 2.03989 2.1036 2.16522 2.22529 2.28535 2.34559 2.40248 2.46038 2.51539 2.57026 2.62513 2.67561 2.72931 2.7793 2.82929 2.87939 2.92355 2.97418 3.01973 3.06515 3.11057 3.14927 3.19613 3.23729 3.27844 3.31974 3.35276 3.39722 3.4346 3.47177 3.5083 3.53733 3.57757 3.61203 3.64552 3.67722 3.7022 3.73963 3.77202 3.80223 3.82954 3.85182 3.88552 3.91491 3.94167 3.96534 3.98391 4.01529 4.04133 4.06523 4.08682 4.10309 4.1316 4.15499 4.17643 4.19546 4.20906 4.23942 4.25842 4.27347 4.28576 4.28712 4.32256 4.3487 4.37645 4.40784 4.42984 4.46357 4.48862 4.51367 4.53914 4.56011 4.58987 4.61077 4.63032 4.64986 4.66578 4.68209 4.69384 4.70559 4.71734 4.73117 4.75742 4.78366 4.78702 4.75138 4.71574 4.80588 4.89601 4.91935 4.87671 4.83405 4.90584 4.97764 4.98366 4.92158 4.85951 4.92371 4.98791 4.97663 4.88989 4.80314 4.84012 4.87712 4.84657 4.74629 4.64601 4.71575 4.78549 4.74125 4.59126 4.44126 4.35041 4.27547 4.21917 4.16287 4.08252 4.21789 4.23216 4.24626 4.26037 4.14495 4.19543 4.08631 3.97718 3.87429 3.67609 3.51741 3.3297 3.13251 2.93533 2.7307 2.28894 1.88246 1.52757 1.32738 1.30784 1.5228 1.68879 1.96039 2.36613 2.60555 2.7319 2.76075 2.74684 2.67204 2.51675 2.17781 1.88797 1.60067 1.31416 1.08571 0.725127 0.547072 -0.0159384 -0.502194 -0.61054 -0.465161 -0.29003 -0.114928 0.0280092 0.119223 0.193071 0.238385 0.396885 0.555345 0.662719 0.809271 0.887365 0.965423 1.04935 1.07599 1.05288 0.977326 0.901547 0.994839 1.05759 1.07388 0.924074 0.773829 0.623584 0.455281 0.454948 0.370741 0.28458 0.198419 0.106357 0.12466 0.109492 0.0929531 0.0764135 0.0546018 0.0728899 0.071258 0.0684991 0.0657398 0.0584001 0.0696864 0.066391 0.061976 0.0575607 0.0498203 0.057244 0.0545738 0.0509288 0.0472834 0.0412407 0.0474578 0.0461194 0.0438907 0.0416617 0.037597 0.043981 0.0443251 0.0437799 0.0432345 0.0414044 0.0479845 0.0440238 0.0378686 0.0317036 0.0247556
-4.5605 -4.562 -4.5635 -4.56499 -4.56649 -4.56799 -5.08221 -5.55486 -6.02755 -6.49856 -6.95676 -7.76542 -8.64751 -9.52962 -10.3541 -11.4948 -11.9996 -12.5178 -13.036 -13.5458 -14.1438 -14.9571 -15.7387 -16.493 -17.2474 -17.9943 -18.9675 -19.917 -20.8667 -21.8203 -22.762 -23.9592 -25.1511 -26.3708 -27.5906 -28.8025 -30.2968 -31.8714 -33.446 -34.9254 -36.4696 -38.2894 -40.0609 -42.0164 -43.9703 -45.8544 -47.9182 -50.218 -52.5251 -54.8187 -57.6095 -58.5116 -59.4519 -60.3882 -61.2815 -62.4808 -63.6103 -64.6568 -65.6824 -66.7111 -67.797 -68.7938 -69.7067 -70.616 -71.5391 -72.5397 -73.3925 -74.1855 -74.9705 -75.7581 -76.609 -77.3093 -77.924 -78.5391 -79.2975 -80.0042 -80.1529 -80.3409 -80.5267 -80.7079 -80.9424 -81.1074 -81.2953 -81.4778 -81.6571 -81.8608 -81.9901 -82.1224 -82.2592 -82.4016 -82.5472 -82.6311 -82.7163 -82.7988 -82.8782 -82.9608 -82.9782 -82.9982 -83.0198 -83.0428 -83.0672 -83.039 -83.0106 -82.983 -82.9569 -82.9318 -82.8488 -82.768 -82.6823 -82.5953 -82.5096 -82.3689 -82.2274 -82.0869 -81.956 -81.8255 -81.6451 -81.4664 -81.2753 -81.0846 -80.8954 -80.6552 -80.4139 -80.173 -79.9465 -79.7241 -79.4578 -79.1867 -78.9044 -78.6224 -78.3411 -78.1432 -77.9454 -77.7477 -77.5501 -77.3603 -77.2331 -77.1087 -76.9875 -76.8664 -76.7451 -76.4051 -76.0492 -75.6875 -75.3261 -74.966 -74.5728 -74.1797 -73.7868 -73.3942 -73.02 -72.6149 -72.193 -71.7713 -71.3497 -70.9319 -70.4878 -70.0438 -69.5999 -69.1562 -68.7195 -68.2574 -67.7928 -67.3292 -66.8657 -66.4041 -66.2445 -66.085 -65.9254 -65.7658 -65.6105 -65.2902 -64.9699 -64.6498 -64.3297 -64.0092 -63.5114 -63.0192 -62.5272 -62.0353 -61.5426 -61.0301 -60.5288 -60.0276 -59.5265 -59.0178 -58.4867 -57.977 -57.4673 -56.9578 -56.4479 -55.9205 -55.4084 -54.8965 -54.376 -53.8541 -53.3147 -52.7894 -52.2757 -51.7621 -51.2488 -50.7195 -50.2084 -49.6973 -49.1641 -48.6487 -48.1171 -47.5902 -47.0789 -46.5717 -46.0658 -45.5461 -45.0467 -44.5355 -44.0146 -43.5149 -43.0002 -42.4902 -41.9815 -41.4892 -40.998 -40.4938 -40.0068 -39.5054 -39.0058 -38.5258 -38.032 -37.5436 -37.0559 -36.5737 -36.1047 -35.6244 -35.1496 -34.6759 -34.2021 -33.7454 -33.2798 -32.8204 -32.3611 -31.9012 -31.4497 -31.0006 -30.5551 -30.1103 -29.6655 -29.2224 -29.1133 -29.005 -28.8967 -28.7884 -28.6804 -28.3581 -28.0359 -27.7136 -27.3899 -27.0681 -26.6474 -26.2325 -25.8186 -25.4046 -24.9942 -24.5854 -24.1886 -23.7918 -23.394 -23.0036 -22.6078 -22.2253 -21.8459 -21.4687 -21.096 -20.7186 -20.348 -19.9858 -19.6288 -19.274 -18.9147 -18.5571 -18.2129 -17.8746 -17.5376 -17.1964 -16.8571 -16.5278 -16.2066 -15.8871 -15.5636 -15.2406 -14.9264 -14.6236 -14.3212 -14.0147 -13.7094 -13.4121 -13.1234 -12.8373 -12.5477 -12.2626 -11.9821 -11.7046 -11.4349 -11.161 -10.8946 -10.6302 -10.3659 -10.1109 -9.85515 -9.60682 -9.3583 -9.10913 -8.86542 -8.62773 -8.39402 -8.16083 -7.92787 -7.69579 -7.64457 -7.59411 -7.54366 -7.49321 -7.44264 -7.27358 -7.10448 -6.93491 -6.76535 -6.59854 -6.38951 -6.18335 -5.9775 -5.77191 -5.57265 -5.37378 -5.18188 -4.98974 -4.79737 -4.61461 -4.42723 -4.24703 -4.06798 -3.89233 -3.72367 -3.54837 -3.37729 -3.21057 -3.05 -2.89274 -2.73024 -2.56838 -2.41339 -2.26864 -2.12394 -1.97213 -1.82028 -1.67708 -1.54241 -1.40776 -1.26764 -1.12753 -0.995621 -0.872262 -0.748917 -0.618157 -0.487473 -0.366516 -0.251625 -0.1373 -0.0172277 0.099837 0.211111 0.318507 0.422527 0.534423 0.639816 0.741937 0.843023 0.939041 1.04113 1.13469 1.22817 1.32164 1.40977 1.50172 1.58714 1.67255 1.75803 1.84118 1.9223 2.00045 2.07846 2.15646 2.23415 2.24405 2.25356 2.26307 2.27258 2.28211 2.34494 2.40776 2.47059 2.53358 2.59391 2.66219 2.72845 2.79455 2.86065 2.92189 2.98542 3.04548 3.10554 3.16572 3.21733 3.27772 3.33238 3.3867 3.43924 3.48556 3.53928 3.59012 3.63867 3.68334 3.72332 3.77301 3.81792 3.86124 3.90202 3.93824 3.98187 4.02225 4.06068 4.09525 4.12595 4.16627 4.20048 4.23371 4.26638 4.29397 4.32891 4.36024 4.38869 4.41564 4.43844 4.47083 4.49632 4.52058 4.54595 4.56598 4.59362 4.61637 4.63711 4.65755 4.6735 4.69912 4.71714 4.73485 4.75287 4.76635 4.78743 4.80213 4.81654 4.83096 4.84179 4.85923 4.87039 4.88154 4.89269 4.90199 4.9137 4.92035 4.927 4.93364 4.93929 4.96201 4.98568 5.00069 5.0095 5.01599 5.03854 5.05613 5.06604 5.07489 5.07878 5.0884 5.08964 5.09087 5.09723 5.09992 5.10411 5.10279 5.09829 5.09379 5.08569 5.05913 4.9962 4.96403 4.95616 4.93997 4.97084 4.98185 4.99138 4.99934 5.0044 5.00681 5.00531 5.00381 5.00231 5.00081 5.00103 5.00127 5.0039 5.00653 4.98385 4.98672 4.96884 4.94858 4.92654 4.85747 4.85595 4.81481 4.77654 4.74274 4.63277 4.64397 4.60978 4.56409 4.50553 4.37277 4.23915 4.17585 4.11003 4.02796 3.86327 4.18827 4.26611 4.30935 4.31855 4.11415 4.28437 4.18842 4.06243 3.9163 3.51784 3.56089 3.19942 2.83797 2.48239 2.0527 1.7009 1.51341 1.32596 1.13856 1.02084 1.03557 1.04356 1.05156 1.05955 1.10432 1.47625 1.84837 2.22068 2.59318 2.59251 3.21682 3.30214 3.33684 3.27733 2.59702 2.92876 2.60891 2.28938 1.97016 1.3005 0.499595 -0.210198 -0.454361 -0.6974 -0.827682 -0.680853 -0.526661 -0.408701 -0.290672 -0.199376 -0.140002 -0.154587 -0.169163 -0.12228 -0.0168919 0.114448 0.190398 0.268666 0.347476 0.372909 0.331529 0.426369 0.540898 0.657656 0.722811 0.735783 0.722236 0.587142 0.436097 0.268164 0.266267 0.253633 0.179138 0.0925215 0.000369179 0.017765 0.0283843 0.0173609 0.000502047 -0.0213201 -0.00368548 0.0086449 0.00964638 0.00664368 -0.000688242 0.0101249 0.0170458 0.0160166 0.0114144 0.00365548 0.0107397 0.0150165 0.0141213 0.0103288 0.00424935 0.0102139 0.0140334 0.0142035 0.0118582 0.00775239 0.0139524 0.018611 0.0203948 0.0197596 0.0178855 0.0243303 0.0295734 0.0291695 0.0229848 0.0160441