# vtk DataFile Version 2.0
track0
ASCII
DATASET POLYDATA
POINTS 15215 float
-1.001 -0.05 0.0011
-1.00088 -0.05 0.0011
-1.00076 -0.05 0.00109999
-1.00064 -0.05 0.00109999
-1.00052 -0.05 0.00109999
-1.0004 -0.05 0.00109998
-0.975398 -0.05 0.00109925
-0.9504 -0.0499999 0.00109824
-0.925402 -0.0499999 0.00109723
-0.900404 -0.0499998 0.00109623
-0.875406 -0.0499998 0.00109522
-0.850407 -0.0499998 0.0010941
-0.825407 -0.0499996 0.00109261
-0.800408 -0.0499995 0.00109113
-0.775408 -0.0499993 0.00108966
-0.750409 -0.0499992 0.00108818
-0.737914 -0.0499991 0.00108725
-0.72542 -0.0499989 0.00108572
-0.712925 -0.0499987 0.00108419
-0.700431 -0.0499986 0.00108266
-0.687936 -0.0499984 0.00108114
-0.675431 -0.0499984 0.00108006
-0.662926 -0.0499982 0.00107837
-0.65042 -0.049998 0.00107669
-0.637915 -0.0499978 0.001075
-0.62541 -0.0499976 0.00107332
-0.612898 -0.0499974 0.00107202
-0.600387 -0.0499971 0.00107009
-0.587876 -0.0499968 0.00106817
-0.575365 -0.0499966 0.00106625
-0.562854 -0.0499963 0.00106433
-0.550338 -0.0499964 0.00106277
-0.537822 -0.049996 0.00106061
-0.525307 -0.0499956 0.00105845
-0.512791 -0.0499953 0.0010563
-0.500275 -0.0499949 0.00105415
-0.487751 -0.0499945 0.00105236
-0.475226 -0.0499941 0.00105005
-0.462701 -0.0499936 0.00104774
-0.450177 -0.0499931 0.00104544
-0.437652 -0.0499926 0.00104314
-0.42513 -0.0499927 0.00104121
-0.412607 -0.0499921 0.00103877
-0.400084 -0.0499914 0.00103633
-0.387562 -0.0499908 0.0010339
-0.375039 -0.0499902 0.00103147
-0.362534 -0.0499894 0.00102968
-0.350028 -0.0499886 0.00102804
-0.337522 -0.0499878 0.00102641
-0.325017 -0.049987 0.00102477
-0.312511 -0.0499862 0.00102315
-0.306259 -0.0499857 0.00102239
-0.300007 -0.0499847 0.00102109
-0.293755 -0.0499838 0.00101978
-0.287503 -0.0499829 0.00101848
-0.281251 -0.0499819 0.00101718
-0.275 -0.0499807 0.00101654
-0.26875 -0.0499796 0.00101555
-0.2625 -0.0499785 0.00101456
-0.25625 -0.0499774 0.00101357
-0.25 -0.0499762 0.00101258
-0.24375 -0.0499756 0.00101217
-0.2375 -0.0499743 0.00101146
-0.23125 -0.0499729 0.00101074
-0.225 -0.0499715 0.00101002
-0.21875 -0.0499701 0.00100931
-0.2125 -0.0499686 0.00100916
-0.20625 -0.0499669 0.00100878
-0.2 -0.0499652 0.00100841
-0.19375 -0.0499636 0.00100804
-0.1875 -0.0499619 0.00100766
-0.18125 -0.0499611 0.00100789
-0.175 -0.0499592 0.00100797
-0.16875 -0.0499572 0.00100805
-0.1625 -0.0499552 0.00100814
-0.15625 -0.0499532 0.00100822
-0.153125 -0.0499521 0.00100839
-0.15 -0.0499498 0.00100867
-0.146875 -0.0499476 0.00100894
-0.14375 -0.0499453 0.00100921
-0.140625 -0.0499431 0.00100948
-0.1375 -0.0499411 0.00100976
-0.134374 -0.0499385 0.00101024
-0.131249 -0.0499359 0.00101071
-0.128124 -0.0499334 0.00101119
-0.124999 -0.0499308 0.00101167
-0.121874 -0.0499294 0.00101207
-0.118749 -0.0499265 0.00101272
-0.115624 -0.0499236 0.00101336
-0.112499 -0.0499208 0.00101401
-0.109374 -0.0499179 0.00101466
-0.106249 -0.0499157 0.0010152
-0.103124 -0.0499126 0.00101597
-0.0999989 -0.0499095 0.00101675
-0.0968739 -0.0499064 0.00101752
-0.0937488 -0.0499033 0.0010183
-0.0906239 -0.0499016 0.00101893
-0.0874989 -0.0498983 0.00101982
-0.0843739 -0.049895 0.00102071
-0.0812489 -0.0498916 0.00102161
-0.0781239 -0.0498883 0.0010225
-0.0749989 -0.0498858 0.00102326
-0.0718739 -0.0498823 0.00102426
-0.0687489 -0.0498787 0.00102526
-0.0656238 -0.0498751 0.00102626
-0.0624988 -0.0498716 0.00102726
-0.0593738 -0.0498698 0.0010281
-0.0562488 -0.049866 0.00102921
-0.0531238 -0.0498622 0.00103032
-0.0499988 -0.0498584 0.00103144
-0.0468738 -0.0498546 0.00103255
-0.0437488 -0.0498519 0.00103351
-0.0406238 -0.0498479 0.00103472
-0.0374988 -0.0498438 0.00103594
-0.0343738 -0.0498398 0.00103716
-0.0312488 -0.0498358 0.00103838
-0.0281239 -0.0498338 0.00103942
-0.0249989 -0.0498296 0.00104074
-0.0218739 -0.0498253 0.00104205
-0.018749 -0.049821 0.00104337
-0.015624 -0.0498168 0.00104469
-0.012499 -0.0498138 0.00104585
-0.00937393 -0.0498093 0.00104727
-0.00624889 -0.0498049 0.00104868
-0.00312386 -0.0498004 0.0010501
1.18298e-06 -0.0497959 0.00105152
0.00312621 -0.0497937 0.00105276
0.00625124 -0.049789 0.00105427
0.00937627 -0.0497843 0.00105578
0.0125013 -0.0497795 0.0010573
0.0156263 -0.0497748 0.00105881
0.0187516 -0.0497716 0.00106015
0.0218768 -0.0497667 0.00106176
0.025002 -0.0497618 0.00106336
0.0281273 -0.0497568 0.00106496
0.0312525 -0.0497518 0.00106657
0.0343793 -0.0497495 0.00106799
0.037506 -0.0497443 0.00106968
0.0406327 -0.0497392 0.00107138
0.0437595 -0.049734 0.00107307
0.0468862 -0.0497288 0.00107477
0.050011 -0.0497253 0.00107629
0.0531358 -0.0497199 0.00107806
0.0562606 -0.0497146 0.00107984
0.0593853 -0.0497092 0.00108162
0.0625101 -0.0497037 0.0010834
0.065635 -0.0497012 0.00108499
0.0687598 -0.0496956 0.00108684
0.0718846 -0.04969 0.0010887
0.0750094 -0.0496844 0.00109056
0.0781342 -0.0496787 0.00109243
0.0812601 -0.049675 0.0010941
0.084386 -0.0496692 0.00109604
0.0875119 -0.0496633 0.00109797
0.0906377 -0.0496575 0.00109991
0.0937636 -0.0496516 0.00110186
0.0968915 -0.0496489 0.0011036
0.100019 -0.0496429 0.00110561
0.103147 -0.0496368 0.00110762
0.106275 -0.0496307 0.00110963
0.109403 -0.0496247 0.00111165
0.112529 -0.0496207 0.00111347
0.115655 -0.0496144 0.00111555
0.118781 -0.0496082 0.00111763
0.121907 -0.0496019 0.00111971
0.125032 -0.0495956 0.0011218
0.128157 -0.0495927 0.00112368
0.131283 -0.0495862 0.00112582
0.134408 -0.0495798 0.00112797
0.137533 -0.0495733 0.00113012
0.140658 -0.0495668 0.00113227
0.143784 -0.0495626 0.00113421
0.146909 -0.0495559 0.00113641
0.150035 -0.0495492 0.00113862
0.153161 -0.0495425 0.00114083
0.156287 -0.0495358 0.00114304
0.159413 -0.0495327 0.00114504
0.16254 -0.0495259 0.0011473
0.165667 -0.049519 0.00114956
0.168794 -0.049512 0.00115183
0.171921 -0.0495051 0.0011541
0.175047 -0.0495007 0.00115615
0.178172 -0.0494936 0.00115846
0.181298 -0.0494865 0.00116078
0.184424 -0.0494794 0.0011631
0.18755 -0.0494723 0.00116542
0.190674 -0.049469 0.00116751
0.193799 -0.0494618 0.00116987
0.196923 -0.0494545 0.00117223
0.200048 -0.0494472 0.0011746
0.203172 -0.0494399 0.00117697
0.206296 -0.0494352 0.00117909
0.209421 -0.0494278 0.00118149
0.212545 -0.0494203 0.00118389
0.215669 -0.0494128 0.0011863
0.218794 -0.0494053 0.00118871
0.221919 -0.049402 0.00119088
0.225045 -0.0493943 0.00119332
0.22817 -0.0493867 0.00119576
0.231296 -0.049379 0.0011982
0.234421 -0.0493713 0.00120065
0.237548 -0.0493665 0.00120285
0.240674 -0.0493587 0.00120532
0.2438 -0.0493508 0.0012078
0.246927 -0.049343 0.00121028
0.250053 -0.0493352 0.00121276
0.25318 -0.0493316 0.00121499
0.256307 -0.0493237 0.00121749
0.259434 -0.0493157 0.00122
0.262561 -0.0493077 0.00122251
0.265688 -0.0492996 0.00122503
0.268813 -0.0492946 0.00122728
0.271938 -0.0492865 0.0012298
0.275062 -0.0492783 0.00123233
0.278187 -0.0492702 0.00123487
0.281312 -0.049262 0.00123741
0.284435 -0.0492584 0.00123968
0.287558 -0.0492501 0.00124223
0.290681 -0.0492418 0.00124477
0.293804 -0.0492335 0.00124733
0.296927 -0.0492252 0.00124989
0.30005 -0.04922 0.00125216
0.303174 -0.0492116 0.00125472
0.306297 -0.0492032 0.00125728
0.309421 -0.0491948 0.00125985
0.312544 -0.0491863 0.00126242
0.315668 -0.0491826 0.00126472
0.318793 -0.0491741 0.00126729
0.321917 -0.0491655 0.00126987
0.325041 -0.049157 0.00127245
0.328166 -0.0491484 0.00127503
0.331291 -0.0491431 0.00127733
0.334416 -0.0491344 0.0012799
0.337541 -0.0491257 0.00128249
0.340666 -0.0491171 0.00128508
0.343791 -0.0491084 0.00128767
0.346916 -0.0491045 0.00128998
0.350042 -0.0490958 0.00129257
0.353168 -0.049087 0.00129516
0.356294 -0.0490782 0.00129776
0.35942 -0.0490694 0.00130036
0.362549 -0.0490639 0.00130266
0.365679 -0.049055 0.00130525
0.368808 -0.0490461 0.00130785
0.371938 -0.0490372 0.00131045
0.375068 -0.0490283 0.00131305
0.378205 -0.0490243 0.00131538
0.381343 -0.0490153 0.00131798
0.384481 -0.0490063 0.00132058
0.387619 -0.0489973 0.00132319
0.390756 -0.0489882 0.0013258
0.393889 -0.0489826 0.0013281
0.397022 -0.0489735 0.00133069
0.400155 -0.0489645 0.00133328
0.403288 -0.0489554 0.00133588
0.406421 -0.0489463 0.00133848
0.409551 -0.0489422 0.00134079
0.412682 -0.0489331 0.00134337
0.415813 -0.0489239 0.00134596
0.418943 -0.0489148 0.00134855
0.422074 -0.0489056 0.00135115
0.425204 -0.0488999 0.00135343
0.428334 -0.0488907 0.001356
0.431464 -0.0488814 0.00135858
0.434594 -0.0488722 0.00136116
0.437724 -0.0488629 0.00136375
0.440854 -0.0488588 0.00136604
0.443984 -0.0488495 0.00136861
0.447114 -0.0488402 0.00137117
0.450244 -0.0488309 0.00137375
0.453374 -0.0488216 0.00137633
0.456504 -0.0488158 0.00137859
0.459634 -0.0488064 0.00138114
0.462763 -0.0487971 0.00138369
0.465893 -0.0487877 0.00138626
0.469023 -0.0487783 0.00138882
0.472152 -0.0487742 0.00139109
0.475282 -0.0487648 0.00139363
0.478411 -0.0487553 0.00139617
0.481541 -0.0487459 0.00139872
0.48467 -0.0487364 0.00140127
0.4878 -0.0487306 0.0014035
0.490929 -0.0487211 0.00140602
0.494058 -0.0487116 0.00140854
0.497187 -0.0487022 0.00141107
0.500317 -0.0486927 0.00141361
0.503446 -0.0486885 0.00141584
0.506575 -0.048679 0.00141835
0.509704 -0.0486695 0.00142085
0.512833 -0.0486599 0.00142337
0.515962 -0.0486504 0.00142589
0.519091 -0.0486445 0.00142808
0.52222 -0.0486349 0.00143056
0.525348 -0.0486254 0.00143305
0.528477 -0.0486158 0.00143554
0.531606 -0.0486062 0.00143804
0.534734 -0.048602 0.00144024
0.537863 -0.0485925 0.0014427
0.540992 -0.0485829 0.00144517
0.54412 -0.0485733 0.00144764
0.547249 -0.0485637 0.00145011
0.550377 -0.0485577 0.00145227
0.553506 -0.0485481 0.00145471
0.556634 -0.0485385 0.00145715
0.559762 -0.0485289 0.0014596
0.562891 -0.0485193 0.00146205
0.566019 -0.0485151 0.0014642
0.569147 -0.0485055 0.00146662
0.572275 -0.0484959 0.00146904
0.575403 -0.0484862 0.00147146
0.578532 -0.0484766 0.00147389
0.58166 -0.0484706 0.001476
0.584788 -0.048461 0.00147839
0.587915 -0.0484514 0.00148078
0.591043 -0.0484417 0.00148318
0.594171 -0.0484321 0.00148558
0.597299 -0.0484279 0.00148769
0.600427 -0.0484182 0.00149006
0.603555 -0.0484086 0.00149244
[...]
POINT_DATA 15215
 FIELD attributes 1
U 3 15215 float
25.0026 	1.75621e-05 	-0.000700305 25.0025 	1.71482e-05 	-0.000707255 25.0023 	1.67344e-05 	-0.000714206 25.0022 	1.63206e-05 	-0.000721156 25.002 	1.59068e-05 	-0.000728107 25.0018 	1.5493e-05 	-0.000735057 25.0046 	4.82687e-05 	-0.00100874 25.0046 	4.82244e-05 	-0.00100782 25.0046 	4.81801e-05 	-0.00100689 25.0045 	4.81359e-05 	-0.00100597 25.0028 	-5.92646e-06 	-0.00112219 25.0074 	0.000150404 	-0.00148309 25.0074 	0.0001502 	-0.00148108 25.0074 	0.000149996 	-0.00147907 25.0074 	0.000149793 	-0.00147707 25.0093 	0.000207857 	-0.00186187 25.0184 	0.000350763 	-0.00306573 25.0183 	0.000350269 	-0.00306142 25.0183 	0.000349776 	-0.00305711 25.0183 	0.000349284 	-0.0030528 25.0109 	-4.76362e-05 	-0.00215013 25.0234 	0.000421596 	-0.00337914 25.0234 	0.000420937 	-0.00337385 25.0234 	0.000420279 	-0.00336858 25.0233 	0.000419622 	-0.00336331 25.0135 	0.000388019 	-0.00261202 25.0294 	0.000539177 	-0.00385394 25.0294 	0.000538208 	-0.00384702 25.0293 	0.000537241 	-0.00384011 25.0293 	0.000536275 	-0.00383321 25.0167 	-0.000100599 	-0.00312586 25.0366 	0.000715395 	-0.00432479 25.0366 	0.000713939 	-0.00431599 25.0365 	0.000712487 	-0.00430721 25.0364 	0.000711038 	-0.00429845 25.0204 	0.000807382 	-0.003566 25.0449 	0.000954256 	-0.00462405 25.0448 	0.00095216 	-0.00461389 25.0447 	0.000950067 	-0.00460375 25.0446 	0.00094798 	-0.00459363 25.0251 	-0.000200955 	-0.00386492 25.0552 	0.00128302 	-0.00488598 25.055 	0.00128001 	-0.00487452 25.0549 	0.00127701 	-0.00486309 25.0548 	0.00127401 	-0.00485168 25.0302 	0.00155945 	-0.00359744 25.0652 	0.00162211 	-0.00328049 25.0651 	0.00161953 	-0.00327527 25.065 	0.00161696 	-0.00327007 25.0649 	0.00161439 	-0.00326487 25.071 	0.0019238 	-0.00301654 25.1403 	0.00376289 	-0.00525279 25.1401 	0.00375809 	-0.00524608 25.1399 	0.00375329 	-0.00523937 25.1398 	0.00374849 	-0.00523268 25.0742 	0.00485855 	-0.00257587 25.1504 	0.0045345 	-0.00398365 25.1502 	0.00453008 	-0.00397977 25.1501 	0.00452567 	-0.0039759 25.1499 	0.00452126 	-0.00397202 25.0795 	0.00236353 	-0.00163751 25.1586 	0.00555115 	-0.00288869 25.1585 	0.00554721 	-0.00288664 25.1584 	0.00554328 	-0.00288459 25.1583 	0.00553935 	-0.00288255 25.083 	0.00633082 	-0.000591456 25.1659 	0.00671996 	-0.00150682 25.1658 	0.00671747 	-0.00150626 25.1657 	0.00671498 	-0.0015057 25.1657 	0.00671249 	-0.00150514 25.087 	0.00302352 	0.000904407 25.1706 	0.00797143 	0.000333937 25.1707 	0.00797208 	0.000333965 25.1707 	0.00797274 	0.000333992 25.1707 	0.0079734 	0.000334019 25.1735 	0.00929321 	0.00140809 25.3457 	0.018259 	0.00220204 25.3458 	0.018264 	0.00220263 25.3459 	0.0182689 	0.00220323 25.346 	0.0182738 	0.00220382 25.1748 	0.0157693 	0.00224576 25.351 	0.0208818 	0.00386752 25.3512 	0.0208916 	0.00386935 25.3513 	0.0209015 	0.00387117 25.3515 	0.0209114 	0.003873 25.1778 	0.0113033 	0.00322522 25.3546 	0.0232636 	0.00524827 25.3548 	0.0232784 	0.00525162 25.3551 	0.0232933 	0.00525498 25.3553 	0.0233082 	0.00525834 25.1784 	0.0177189 	0.00433422 25.3571 	0.0252232 	0.00628459 25.3574 	0.0252425 	0.00628938 25.3577 	0.0252617 	0.00629418 25.3579 	0.025281 	0.00629898 25.1804 	0.0129773 	0.0050748 25.3582 	0.0271 	0.00723554 25.3585 	0.0271237 	0.00724187 25.3588 	0.0271474 	0.0072482 25.3591 	0.0271712 	0.00725455 25.1798 	0.0196153 	0.00608934 25.3583 	0.0289134 	0.00812065 25.3586 	0.0289417 	0.0081286 25.359 	0.02897 	0.00813655 25.3593 	0.0289983 	0.0081445 25.1808 	0.0144535 	0.00676757 25.358 	0.0307692 	0.00900154 25.3584 	0.0308024 	0.00901126 25.3588 	0.0308357 	0.00902098 25.3592 	0.0308689 	0.00903071 25.1799 	0.0216191 	0.00774317 25.3569 	0.032629 	0.00985635 25.3573 	0.0326673 	0.00986794 25.3577 	0.0327057 	0.00987954 25.3581 	0.0327441 	0.00989115 25.18 	0.0159533 	0.00840944 25.3549 	0.0344924 	0.0106786 25.3553 	0.034536 	0.0106921 25.3558 	0.0345798 	0.0107057 25.3562 	0.0346235 	0.0107192 25.1782 	0.0236756 	0.0093274 25.352 	0.0363666 	0.0114765 25.3525 	0.0364158 	0.011492 25.353 	0.0364651 	0.0115075 25.3535 	0.0365144 	0.0115231 25.1775 	0.0174574 	0.00997721 25.3483 	0.0381907 	0.0122438 25.3488 	0.0382454 	0.0122614 25.3493 	0.0383003 	0.012279 25.3498 	0.0383552 	0.0122966 25.1748 	0.0257237 	0.0108211 25.3437 	0.0400227 	0.0129825 25.3442 	0.0400831 	0.0130021 25.3448 	0.0401437 	0.0130218 25.3453 	0.0402043 	0.0130414 25.1733 	0.0189463 	0.0114505 25.3386 	0.0418523 	0.013697 25.3391 	0.0419185 	0.0137187 25.3397 	0.0419849 	0.0137404 25.3402 	0.0420513 	0.0137621 25.17 	0.0277856 	0.0122131 25.3328 	0.0436555 	0.0143819 25.3333 	0.0437274 	0.0144056 25.3339 	0.0437995 	0.0144293 25.3344 	0.0438717 	0.0144531 25.1676 	0.02039 	0.0127927 25.3262 	0.0454481 	0.0150343 25.3268 	0.0455258 	0.01506 25.3274 	0.0456036 	0.0150858 25.3279 	0.0456816 	0.0151116 25.1639 	0.0298315 	0.0134804 25.3192 	0.0472293 	0.0156588 25.3197 	0.0473128 	0.0156864 25.3203 	0.0473964 	0.0157141 25.3208 	0.0474801 	0.0157419 25.1607 	0.0218279 	0.0140119 25.3116 	0.048963 	0.0162562 25.3122 	0.0490522 	0.0162858 25.3128 	0.0491415 	0.0163154 25.3133 	0.0492309 	0.0163451 25.1565 	0.0318256 	0.0146143 25.3035 	0.0506629 	0.0168166 25.3041 	0.0507574 	0.016848 25.3046 	0.0508521 	0.0168794 25.3052 	0.050947 	0.0169109 25.1526 	0.0232151 	0.0150955 25.2947 	0.0523382 	0.0173337 25.2953 	0.052438 	0.0173667 25.2959 	0.0525379 	0.0173998 25.2964 	0.052638 	0.017433 25.148 	0.0337413 	0.015593 25.2857 	0.0539953 	0.0178189 25.2862 	0.0541002 	0.0178535 25.2868 	0.0542053 	0.0178882 25.2873 	0.0543105 	0.017923 25.1436 	0.0245769 	0.0160282 25.2763 	0.0556579 	0.0182721 25.2769 	0.0557677 	0.0183082 25.2774 	0.0558778 	0.0183444 25.2779 	0.0559881 	0.0183806 25.1387 	0.0356536 	0.0164264 25.2666 	0.0572634 	0.0186855 25.2671 	0.0573779 	0.0187229 25.2677 	0.0574926 	0.0187603 25.2682 	0.0576076 	0.0187978 25.1339 	0.0259015 	0.0168089 25.2564 	0.0587786 	0.019052 25.2569 	0.0588973 	0.0190904 25.2574 	0.0590162 	0.019129 25.2579 	0.0591353 	0.0191676 25.1286 	0.0374016 	0.0170972 25.2458 	0.060223 	0.0193744 25.2463 	0.0603455 	0.0194138 25.2468 	0.0604682 	0.0194533 25.2473 	0.0605911 	0.0194928 25.1233 	0.027084 	0.0174223 25.2351 	0.0616231 	0.0196701 25.2356 	0.0617491 	0.0197104 25.2361 	0.0618754 	0.0197507 25.2366 	0.062002 	0.0197911 25.118 	0.0390195 	0.0176231 25.2245 	0.0629813 	0.0199376 25.225 	0.0631107 	0.0199785 25.2254 	0.0632404 	0.0200196 25.2259 	0.0633703 	0.0200607 25.1127 	0.0282176 	0.0179071 25.2139 	0.0642948 	0.0201763 25.2143 	0.0644272 	0.0202179 25.2148 	0.0645599 	0.0202595 25.2152 	0.0646928 	0.0203012 25.1073 	0.04057 	0.0180272 25.203 	0.0655176 	0.0203726 25.2034 	0.0656525 	0.0204145 25.2038 	0.0657876 	0.0204565 25.2042 	0.065923 	0.0204986 25.1017 	0.0292533 	0.0182687 25.1917 	0.0666252 	0.0205149 25.1921 	0.0667619 	0.020557 25.1925 	0.0668988 	0.0205992 25.1929 	0.0670361 	0.0206415 25.096 	0.0418602 	0.0182787 25.1805 	0.0676555 	0.0206198 25.1808 	0.0677937 	0.0206619 25.1812 	0.0679321 	0.0207041 25.1816 	0.0680709 	0.0207464 25.0903 	0.030096 	0.0184659 25.1694 	0.0686435 	0.0206993 25.1697 	0.068783 	0.0207413 25.1701 	0.0689227 	0.0207835 25.1704 	0.0690627 	0.0208257 25.0849 	0.0430113 	0.018409 25.1585 	0.0695893 	0.0207589 25.1588 	0.0697297 	0.0208008 25.1591 	0.0698705 	0.0208427 25.1594 	0.0700115 	0.0208848 25.0793 	0.030891 	0.0185671 25.1477 	0.0704863 	0.0207971 25.148 	0.0706276 	0.0208388 25.1483 	0.0707691 	0.0208805 25.1486 	0.0709109 	0.0209224 25.0741 	0.0440701 	0.0184459 25.1372 	0.0713192 	0.0208132 25.1375 	0.0714611 	0.0208546 25.1377 	0.0716032 	0.0208961 25.138 	0.0717457 	0.0209377 25.0687 	0.0316069 	0.018581 25.1266 	0.0720083 	0.0207978 25.1269 	0.0721505 	0.0208388 25.1271 	0.0722929 	0.02088 25.1274 	0.0724357 	0.0209212 25.0635 	0.0448931 	0.0183872 25.1163 	0.072644 	0.0207516 25.1166 	0.0727856 	0.020792 25.1168 	0.0729275 	0.0208325 25.117 	0.0730696 	0.0208731 25.0583 	0.0321485 	0.0184845 25.1064 	0.0732845 	0.0207003 25.1066 	0.0734256 	0.0207401 25.1068 	0.073567 	0.0207801 25.107 	0.0737086 	0.0208201 25.0534 	0.045666 	0.0182578 25.0967 	0.0738852 	0.020635 25.0969 	0.0740257 	0.0206743 25.0971 	0.0741665 	0.0207136 25.0973 	0.0743075 	0.020753 25.0485 	0.0326702 	0.0183349 25.0873 	0.0744278 	0.0205524 25.0875 	0.0745675 	0.020591 25.0876 	0.0747074 	0.0206296 25.0878 	0.0748477 	0.0206683 25.0439 	0.0463459 	0.0180713 25.0782 	0.0749115 	0.0204504 25.0783 	0.0750501 	0.0204882 25.0785 	0.0751891 	0.0205261 25.0786 	0.0753283 	0.0205641 25.0392 	0.0330939 	0.0181222 25.0693 	0.0753384 	0.020331 25.0694 	0.0754758 	0.0203681 25.0695 	0.0756135 	0.0204052 25.0697 	0.0757515 	0.0204425 25.0349 	0.0468943 	0.0178271 25.0607 	0.0757163 	0.0201966 25.0608 	0.0758523 	0.0202329 25.0609 	0.0759886 	0.0202692 25.061 	0.0761252 	0.0203057 25.0304 	0.0334255 	0.0178551 25.0524 	0.0760375 	0.0200489 25.0525 	0.076172 	0.0200844 25.0526 	0.0763067 	0.0201199 25.0527 	0.0764417 	0.0201555 25.0265 	0.047321 	0.0175377 25.0444 	0.0763026 	0.0198874 25.0445 	0.0764353 	0.019922 25.0445 	0.0765683 	0.0199566 25.0446 	0.0767015 	0.0199913 25.0222 	0.0336659 	0.0175437 25.0367 	0.076517 	0.0197124 25.0368 	0.0766479 	0.0197462 25.0368 	0.076779 	0.0197799 25.0369 	0.0769103 	0.0198138 25.0187 	0.0476175 	0.0172085 25.0294 	0.0766773 	0.0195232 25.0294 	0.0768061 	0.019556 25.0295 	0.0769352 	0.0195888 25.0295 	0.0770644 	0.0196217 25.0147 	0.0338179 	0.0171953 25.0224 	0.0767846 	0.0193247 25.0224 	0.0769113 	0.0193566 25.0224 	0.0770382 	0.0193885 25.0225 	0.0771653 	0.0194205 25.0115 	0.0477908 	0.0168532 25.0157 	0.0768166 	0.0191187 25.0157 	0.076941 	0.0191497 25.0157 	0.0770656 	0.0191807 25.0158 	0.0771904 	0.0192117 25.0078 	0.0338676 	0.0168632 25.0096 	0.0768152 	0.0189776 25.0097 	0.0769378 	0.0190078 25.0097 	0.0770605 	0.0190382 25.0097 	0.0771835 	0.0190685 25.0049 	0.0478526 	0.0165678 25.0031 	0.076795 	0.0188753 25.0031 	0.0769159 	0.0189051 25.0031 	0.077037 	0.0189348 25.0031 	0.0771584 	0.0189646 25.0014 	0.0338798 	0.016614 24.9973 	0.0767891 	0.0187811 24.9973 	0.0769086 	0.0188103 24.9973 	0.0770282 	0.0188396 24.9973 	0.077148 	0.0188689 24.9988 	0.0478473 	0.0163218 24.9912 	0.0766971 	0.0186374 24.9912 	0.0768146 	0.0186659 24.9912 	0.0769323 	0.0186945 24.9911 	0.0770502 	0.0187232 24.9955 	0.0338431 	0.016344 24.986 	0.0766051 	0.0185403 24.986 	0.076721 	0.0185683 24.986 	0.076837 	0.0185964 24.9859 	0.0769533 	0.0186246 24.9932 	0.0477782 	0.0160712 24.98 	0.0765141 	0.0184701 24.98 	0.0766286 	0.0184977 24.98 	0.0767433 	0.0185254 24.9799 	0.0768581 	0.0185531 24.9901 	0.0337786 	0.0160784 24.9748 	0.076416 	0.0183096 24.9748 	0.0765285 	0.0183365 24.9747 	0.0766412 	0.0183635 24.9747 	0.0767541 	0.0183906 24.9881 	0.0476778 	0.0157562 24.97 	0.0762633 	0.0180776 24.9699 	0.0763735 	0.0181037 24.9699 	0.0764838 	0.0181299 24.9699 	0.0765943 	0.0181561 24.9853 	0.0336672 	0.0156831 24.9654 	0.0760656 	0.0178398 24.9654 	0.0761733 	0.0178651 24.9653 	0.0762467 	0.0178886 24.9654 	0.0760824 	0.0179002 24.9836 	0.0473002 	0.0153671 24.9615 	0.0750797 	0.017577 24.9616 	0.0749162 	0.0175863 24.9617 	0.0747531 	0.0175956 24.9617 	0.0745907 	0.0176049 24.981 	0.0334987 	0.0153057 24.9583 	0.0736622 	0.0173178 24.9584 	0.0735043 	0.0173285 24.9585 	0.0733469 	0.0173392 24.9586 	0.0731901 	0.0173499 24.9796 	0.0462761 	0.0150281 24.9553 	0.0721986 	0.0170411 24.9554 	0.0720427 	0.0170498 24.9555 	0.0718872 	0.0170585 24.9555 	0.0717323 	0.0170673 24.9773 	0.0333028 	0.0149648 24.9528 	0.0708494 	0.0168182 24.9529 	0.070699 	0.0168282 24.953 	0.0705491 	0.0168382 24.9531 	0.0703998 	0.0168483 24.9761 	0.0452645 	0.0147141 24.9503 	0.0694228 	0.016547 24.9504 	0.0692744 	0.0165552 24.9505 	0.0691266 	0.0165635 24.9506 	0.0689792 	0.0165717 24.974 	0.0330861 	0.0146431 24.9484 	0.0681414 	0.0163499 24.9485 	0.0679985 	0.0163593 24.9486 	0.0678561 	0.0163688 24.9487 	0.0677142 	0.0163782 24.9729 	0.0442719 	0.0144184 24.9464 	0.0667352 	0.0160823 24.9465 	0.0665943 	0.0160901 24.9466 	0.0664539 	0.0160979 24.9467 	0.066314 	0.0161058 24.9711 	0.0328438 	0.0143407 24.945 	0.0654718 	0.0159081 24.9452 	0.0652936 	0.0159149 24.9453 	0.0651161 	0.0159218 24.9454 	0.0649391 	0.0159288 24.9702 	0.043207 	0.0141419 24.9436 	0.0639166 	0.0156402 24.9437 	0.0637424 	0.0156456 24.9438 	0.0635688 	0.0156509 24.944 	0.0633957 	0.0156563 24.9686 	0.0325811 	0.0140602 24.9428 	0.0625855 	0.0154846 24.9429 	0.0624189 	0.0154913 24.9431 	0.0622528 	0.0154979 24.9432 	0.0620871 	0.0155046 24.9679 	0.042122 	0.0138862 24.9417 	0.0610992 	0.0152206 24.9418 	0.0609363 	0.0152259 24.942 	0.0607739 	0.0152311 24.9421 	0.0606119 	0.0152364 24.9665 	0.0323132 	0.0137949 24.9413 	0.0598648 	0.0150884 24.9414 	0.0597057 	0.0150947 24.9416 	0.0595472 	0.015101 24.9417 	0.0593891 	0.0151073 24.9659 	0.0410901 	0.0136388 24.9406 	0.0584349 	0.0148172 24.9407 	0.0582825 	0.0148224 24.9408 	0.0581305 	0.0148276 24.941 	0.057979 	0.0148328 24.9647 	0.0320488 	0.013532 24.9404 	0.0572673 	0.0147133 24.9406 	0.0571123 	0.014719 24.9407 	0.0569578 	0.0147248 24.9408 	0.0568037 	0.0147306 24.9643 	0.0401202 	0.013382 24.9401 	0.0558529 	0.0143722 24.9403 	0.0556451 	0.0143744 24.9405 	0.0554378 	0.0143767 24.9407 	0.0552311 	0.014379 24.9632 	0.0318202 	0.0132685 24.9406 	0.0543372 	0.0145247 24.9409 	0.0540731 	0.0145222 24.9411 	0.0538098 	0.0145197 24.9414 	0.0535471 	0.0145172 24.9629 	0.038962 	0.0131028 24.9411 	0.0527968 	0.0130327 24.9416 	0.0523117 	0.0130427 24.9421 	0.051828 	0.0130527 24.9425 	0.0513457 	0.0130627 24.9621 	0.0316722 	0.0129932 24.9618 	0.0312695 	0.0127252 24.9617 	0.0313264 	0.0127484 24.9616 	0.0313833 	0.0127715 24.9616 	0.0314403 	0.0127947 24.9838 	0.024047 	0.0133424 24.961 	0.0312057 	0.0122964 24.9609 	0.0312599 	0.0123177 24.9608 	0.0313142 	0.0123391 24.9608 	0.0313685 	0.0123605 24.983 	0.00999126 	0.0129497 24.9604 	0.0306109 	0.0125003 24.9603 	0.0306645 	0.0125222 24.9603 	0.0307182 	0.0125441 24.9602 	0.0307719 	0.0125661 24.9831 	0.0238425 	0.0128064 24.9594 	0.0322117 	0.00977055 24.9594 	0.0322554 	0.00978381 24.9593 	0.0322992 	0.00979709 24.9593 	0.032343 	0.00981039 24.9824 	0.00991377 	0.0124295 24.9821 	0.00966072 	0.0120682 24.982 	0.00969279 	0.0121083 24.9819 	0.00972497 	0.0121485 24.9819 	0.00975726 	0.0121888 24.9929 	-0.00212814 	0.0136972 24.9815 	0.00950333 	0.0118089 24.9814 	0.00953367 	0.0118466 24.9813 	0.00956412 	0.0118844 24.9813 	0.00959466 	0.0119224 24.9928 	0.0124991 	0.0133402 24.9811 	0.00939078 	0.0116455 24.9811 	0.00941987 	0.0116816 24.981 	0.00944905 	0.0117178 24.981 	0.00947832 	0.0117541 24.9925 	-0.00207866 	0.0132667 24.9811 	0.00913338 	0.0112196 24.981 	0.00916021 	0.0112526 24.981 	0.00918712 	0.0112856 24.9809 	0.0092141 	0.0113188 24.9926 	0.0124204 	0.0129933 24.9815 	0.00963347 	0.011513 24.9814 	0.00966207 	0.0115472 24.9814 	0.00969075 	0.0115815 24.9813 	0.00971952 	0.0116158 24.9926 	-0.00207712 	0.0128937 24.9817 	0.00699676 	0.00903042 24.9817 	0.00701281 	0.00905114 24.9817 	0.0070289 	0.0090719 24.9816 	0.00704502 	0.00909271 24.9928 	0.012477 	0.0127395 24.9929 	0.0124079 	0.0125547 24.9928 	0.0124858 	0.0126336 24.9928 	0.0125642 	0.0127129 24.9927 	0.0126431 	0.0127928 24.9968 	-0.00114907 	0.0138596 24.9927 	0.0122904 	0.0122218 24.9927 	0.0123631 	0.0122941 24.9926 	0.0124363 	0.0123669 24.9926 	0.0125099 	0.0124401 24.997 	0.014745 	0.0126876 24.9932 	0.0130199 	0.0126717 24.9932 	0.0130975 	0.0127473 24.9931 	0.0131756 	0.0128233 24.9931 	0.0132542 	0.0128998 24.9972 	-0.00118395 	0.0136495 24.9945 	0.0103531 	0.010594 24.9945 	0.0104032 	0.0106452 24.9944 	0.0104535 	0.0106967 24.9944 	0.0105041 	0.0107485 24.9976 	0.0155699 	0.0127006 24.9982 	0.0164884 	0.0125909 24.9982 	0.0166723 	0.0127313 24.9981 	0.0168582 	0.0128732 24.9981 	0.0170462 	0.0130168 24.9983 	-0.000845346 	0.0151315 24.9977 	0.017613 	0.0124959 24.9976 	0.0177971 	0.0126265 24.9976 	0.0179831 	0.0127585 24.9976 	0.0181711 	0.0128918 24.998 	0.0189712 	0.00966166 24.9975 	0.0186398 	0.0117955 24.9975 	0.0188149 	0.0119063 24.9975 	0.0189916 	0.0120181 24.9975 	0.0191699 	0.012131 24.9981 	-0.000958348 	0.0146734 24.999 	0.0161235 	0.00932556 24.999 	0.0162375 	0.00939152 24.999 	0.0163523 	0.00945794 24.999 	0.016468 	0.00952484 24.9987 	0.0192743 	0.00932944 24.9994 	0.019558 	0.00897297 24.9994 	0.0198133 	0.00909009 24.9994 	0.0200719 	0.00920875 24.9993 	0.0203339 	0.00932895 24.995 	-0.00018314 	0.00920401 24.9989 	0.0206142 	0.00862887 24.9989 	0.0208568 	0.00873042 24.9989 	0.0211023 	0.00883316 24.9989 	0.0213506 	0.00893711 24.9975 	0.00767434 	0.00246587 24.9985 	0.0211719 	0.00841373 24.9984 	0.021403 	0.00850557 24.9984 	0.0216367 	0.00859841 24.9984 	0.0218728 	0.00869227 24.9952 	-0.000259508 	0.00929655 24.9985 	0.0219836 	0.00942573 24.9984 	0.0222381 	0.00953483 24.9984 	0.0224955 	0.00964519 24.9984 	0.0227558 	0.00975683 24.9973 	0.00789282 	0.00288789 24.9972 	0.00765591 	0.00311877 24.9971 	0.00771154 	0.00314144 24.9971 	0.00776757 	0.00316426 24.9971 	0.00782402 	0.00318725 24.9986 	-8.61256e-06 	0.00185641 24.9973 	0.00718185 	0.00348086 24.9973 	0.00723819 	0.00350817 24.9973 	0.00729498 	0.0035357 24.9973 	0.00735222 	0.00356344 24.9986 	-1.38793e-05 	0.00198129 24.9974 	0.00703569 	0.00363648 24.9974 	0.00709134 	0.00366524 24.9974 	0.00714743 	0.00369423 24.9974 	0.00720396 	0.00372345 24.9986 	-1.6016e-05 	0.0020392 24.9974 	0.00699113 	0.00371939 24.9974 	0.0070457 	0.00374842 24.9974 	0.0071007 	0.00377768 24.9974 	0.00715612 	0.00380717 24.9985 	-1.75698e-05 	0.00208175 24.9974 	0.00697464 	0.0037741 24.9974 	0.00702797 	0.00380295 24.9974 	0.0070817 	0.00383203 24.9973 	0.00713584 	0.00386132 24.9985 	-1.90048e-05 	0.00211886 24.9974 	0.00697465 	0.00380978 24.9974 	0.00702665 	0.00383819 24.9973 	0.00707903 	0.0038668 24.9973 	0.00713181 	0.00389563 24.9985 	-2.01828e-05 	0.0021514 24.9974 	0.00698677 	0.00383082 24.9973 	0.00703741 	0.00385859 24.9973 	0.00708841 	0.00388655 24.9973 	0.00713978 	0.00391472 24.9984 	-2.10848e-05 	0.00218015 24.9973 	0.00700632 	0.00384084 24.9973 	0.00705558 	0.00386784 24.9973 	0.00710519 	0.00389504 24.9973 	0.00715515 	0.00392243 24.9984 	-2.18615e-05 	0.00220665 24.9973 	0.00703225 	0.0038473 24.9973 	0.00708022 	0.00387355 24.9973 	0.00712852 	0.00389997 24.9973 	0.00717714 	0.00392657 24.9984 	-2.25723e-05 	0.00222539 24.9699 	0.00549526 	0.0421133 24.9417 	0.0044115 	0.0815552 24.9134 	0.00381028 	0.121193 24.8849 	0.0036951 	0.161028 24.861 	0.00278374 	0.19086