# vtk DataFile Version 2.0
track0
ASCII
DATASET POLYDATA
POINTS 15780 float
-1.001 -0.05 0.0011
-1.0008 -0.05 0.0011
-1.0006 -0.05 0.0011
-1.0004 -0.05 0.0011
-1.0002 -0.05 0.0011
-1 -0.05 0.0011
-0.9875 -0.05 0.0011
-0.975 -0.05 0.0011
-0.9625 -0.05 0.0011
-0.95 -0.05 0.0011
-0.9375 -0.05 0.00109999
-0.925 -0.05 0.00109999
-0.9125 -0.05 0.00109999
-0.9 -0.05 0.00109999
-0.8875 -0.05 0.00109999
-0.875 -0.05 0.00109999
-0.8625 -0.05 0.00109999
-0.85 -0.05 0.00109999
-0.8375 -0.05 0.00109998
-0.825 -0.0500001 0.00109998
-0.8125 -0.0500001 0.00109998
-0.8 -0.0500001 0.00109998
-0.7875 -0.0500001 0.00109998
-0.775 -0.0500001 0.00109998
-0.7625 -0.0500001 0.00109998
-0.75 -0.0500001 0.00109998
-0.7375 -0.0500001 0.00109997
-0.725 -0.0500001 0.00109997
-0.7125 -0.0500001 0.00109997
-0.7 -0.0500001 0.00109997
-0.6875 -0.0500001 0.00109997
-0.675 -0.0500001 0.00109997
-0.6625 -0.0500001 0.00109997
-0.65 -0.0500001 0.00109996
-0.6375 -0.0500001 0.00109996
-0.625 -0.0500001 0.00109996
-0.6125 -0.0500001 0.00109996
-0.6 -0.0500001 0.00109996
-0.5875 -0.0500001 0.00109996
-0.575 -0.0500001 0.00109996
-0.5625 -0.0500001 0.00109996
-0.55 -0.0500001 0.00109995
-0.5375 -0.0500001 0.00109995
-0.525 -0.0500001 0.00109995
-0.5125 -0.0500001 0.00109995
-0.5 -0.0500001 0.00109995
-0.4875 -0.0500001 0.00109995
-0.475 -0.0500001 0.00109995
-0.4625 -0.0500001 0.00109994
-0.45 -0.0500002 0.00109994
-0.4375 -0.0500002 0.00109994
-0.425 -0.0500002 0.00109994
-0.4125 -0.0500002 0.00109994
-0.4 -0.0500002 0.00109994
-0.3875 -0.0500002 0.00109994
-0.375 -0.0500002 0.00109994
-0.3625 -0.0500002 0.00109993
-0.35 -0.0500002 0.00109993
-0.3375 -0.0500002 0.00109993
-0.325 -0.0500002 0.00109993
-0.3125 -0.0500002 0.00109993
-0.3 -0.0500002 0.00109993
-0.2875 -0.0500002 0.00109993
-0.275 -0.0500002 0.00109993
-0.2625 -0.0500002 0.00109992
-0.25 -0.0500002 0.00109992
-0.2375 -0.0500002 0.00109992
-0.225 -0.0500002 0.00109992
-0.2125 -0.0500002 0.00109992
-0.2 -0.0500002 0.00109992
-0.1875 -0.0500002 0.00109992
-0.175 -0.0500002 0.00109992
-0.1625 -0.0500002 0.00109991
-0.15 -0.0500002 0.00109991
-0.1375 -0.0500002 0.00109991
-0.125 -0.0500002 0.00109991
-0.1125 -0.0500002 0.00109991
-0.1 -0.0500002 0.00109991
-0.0875 -0.0500002 0.00109991
-0.075 -0.0500002 0.00109991
-0.0625 -0.0500002 0.00109991
-0.05 -0.0500003 0.00109991
-0.0375 -0.0500003 0.0010999
-0.025 -0.0500003 0.0010999
-0.0125 -0.0500003 0.0010999
2.10607e-13 -0.0500003 0.0010999
0.0125 -0.0500003 0.0010999
0.025 -0.0500003 0.0010999
0.0375 -0.0500003 0.0010999
0.05 -0.0500003 0.0010999
0.0625 -0.0500003 0.0010999
0.075 -0.0500003 0.0010999
0.0875 -0.0500003 0.0010999
0.1 -0.0500003 0.00109989
0.1125 -0.0500003 0.00109989
0.125 -0.0500003 0.00109989
0.1375 -0.0500003 0.00109989
0.15 -0.0500003 0.00109989
0.1625 -0.0500003 0.00109989
0.175 -0.0500003 0.00109989
0.1875 -0.0500003 0.00109989
0.2 -0.0500003 0.00109989
0.2125 -0.0500003 0.00109989
0.225 -0.0500003 0.00109989
0.2375 -0.0500003 0.00109989
0.25 -0.0500003 0.00109989
0.2625 -0.0500003 0.00109988
0.275 -0.0500003 0.00109988
0.2875 -0.0500003 0.00109988
0.3 -0.0500003 0.00109988
0.3125 -0.0500003 0.00109988
0.325 -0.0500003 0.00109988
0.3375 -0.0500003 0.00109988
0.35 -0.0500003 0.00109988
0.3625 -0.0500003 0.00109988
0.375 -0.0500003 0.00109988
0.3875 -0.0500003 0.00109988
0.4 -0.0500004 0.00109988
0.4125 -0.0500004 0.00109988
0.425 -0.0500004 0.00109988
0.4375 -0.0500004 0.00109988
0.45 -0.0500004 0.00109988
0.4625 -0.0500004 0.00109988
0.475 -0.0500004 0.00109988
0.4875 -0.0500004 0.00109988
0.5 -0.0500004 0.00109988
0.5125 -0.0500004 0.00109988
0.525 -0.0500004 0.00109988
0.5375 -0.0500004 0.00109988
0.55 -0.0500004 0.00109988
0.5625 -0.0500004 0.00109988
0.575 -0.0500004 0.00109987
0.5875 -0.0500004 0.00109987
0.6 -0.0500004 0.00109987
0.6125 -0.0500004 0.00109987
0.625 -0.0500004 0.00109987
0.6375 -0.0500004 0.00109987
0.65 -0.0500004 0.00109987
0.6625 -0.0500004 0.00109987
0.675 -0.0500004 0.00109987
0.6875 -0.0500004 0.00109987
0.7 -0.0500004 0.00109987
0.7125 -0.0500004 0.00109987
0.725 -0.0500004 0.00109987
0.7375 -0.0500004 0.00109987
0.75 -0.0500004 0.00109987
0.7625 -0.0500004 0.00109987
0.775 -0.0500004 0.00109987
0.7875 -0.0500004 0.00109987
0.8 -0.0500004 0.00109987
0.8125 -0.0500004 0.00109987
0.825 -0.0500004 0.00109987
0.8375 -0.0500004 0.00109987
0.85 -0.0500004 0.00109987
0.8625 -0.0500004 0.00109987
0.875 -0.0500004 0.00109987
0.8875 -0.0500004 0.00109987
0.9 -0.0500004 0.00109987
0.9125 -0.0500005 0.00109988
0.925 -0.0500005 0.00109988
0.9375 -0.0500005 0.00109988
0.95 -0.0500005 0.00109988
0.9625 -0.0500005 0.00109988
0.975 -0.0500005 0.00109988
0.9875 -0.0500005 0.00109988
1 -0.0500005 0.00109988
1.0125 -0.0500005 0.00109988
1.025 -0.0500005 0.00109988
1.0375 -0.0500005 0.00109988
1.05 -0.0500005 0.00109988
1.0625 -0.0500005 0.00109988
1.075 -0.0500005 0.00109988
1.0875 -0.0500005 0.00109988
1.1 -0.0500005 0.00109988
1.1125 -0.0500005 0.00109988
1.125 -0.0500005 0.00109988
1.1375 -0.0500005 0.00109988
1.15 -0.0500005 0.00109988
1.1625 -0.0500005 0.00109988
1.175 -0.0500005 0.00109988
1.1875 -0.0500005 0.00109988
1.2 -0.0500005 0.00109988
1.2125 -0.0500005 0.00109988
1.225 -0.0500005 0.00109988
1.2375 -0.0500005 0.00109989
1.25 -0.0500005 0.00109989
1.2625 -0.0500005 0.00109989
1.275 -0.0500005 0.00109989
1.2875 -0.0500005 0.00109989
1.3 -0.0500005 0.00109989
1.3125 -0.0500005 0.00109989
1.325 -0.0500005 0.00109989
1.3375 -0.0500005 0.00109989
1.35 -0.0500005 0.00109989
1.3625 -0.0500005 0.00109989
1.375 -0.0500005 0.00109989
1.3875 -0.0500005 0.00109989
1.4 -0.0500005 0.00109989
1.4125 -0.0500005 0.00109989
1.425 -0.0500005 0.00109989
1.4375 -0.0500005 0.0010999
1.45 -0.0500005 0.0010999
1.4625 -0.0500005 0.0010999
1.475 -0.0500005 0.0010999
1.4875 -0.0500005 0.0010999
1.5 -0.0500006 0.0010999
1.5125 -0.0500006 0.0010999
1.525 -0.0500006 0.0010999
1.5375 -0.0500006 0.0010999
1.55 -0.0500006 0.0010999
1.5625 -0.0500006 0.0010999
1.575 -0.0500006 0.0010999
1.5875 -0.0500006 0.0010999
1.6 -0.0500006 0.0010999
1.6125 -0.0500006 0.00109991
1.625 -0.0500006 0.00109991
1.6375 -0.0500006 0.00109991
1.65 -0.0500006 0.00109991
1.6625 -0.0500006 0.00109991
1.675 -0.0500006 0.00109991
1.6875 -0.0500006 0.00109991
1.7 -0.0500006 0.00109991
1.7125 -0.0500006 0.00109991
1.725 -0.0500006 0.00109991
1.7375 -0.0500006 0.00109991
1.75 -0.0500006 0.00109991
1.7625 -0.0500006 0.00109992
1.775 -0.0500006 0.00109992
1.7875 -0.0500006 0.00109992
1.8 -0.0500006 0.00109992
1.8125 -0.0500006 0.00109992
1.825 -0.0500006 0.00109992
1.8375 -0.0500006 0.00109992
1.85 -0.0500006 0.00109992
1.8625 -0.0500006 0.00109992
1.875 -0.0500006 0.00109992
1.8875 -0.0500006 0.00109992
1.9 -0.0500006 0.00109992
1.9125 -0.0500006 0.00109993
1.925 -0.0500006 0.00109993
1.9375 -0.0500006 0.00109993
1.95 -0.0500006 0.00109993
1.9625 -0.0500006 0.00109993
1.975 -0.0500006 0.00109993
1.9875 -0.0500006 0.00109993
2 -0.0500006 0.00109993
2.0125 -0.0500006 0.00109993
2.025 -0.0500006 0.00109993
2.0375 -0.0500006 0.00109993
2.05 -0.0500006 0.00109993
2.0625 -0.0500006 0.00109994
2.075 -0.0500006 0.00109994
2.0875 -0.0500006 0.00109994
2.1 -0.0500006 0.00109994
2.1125 -0.0500006 0.00109994
2.125 -0.0500006 0.00109994
2.1375 -0.0500006 0.00109994
2.15 -0.0500006 0.00109994
2.1625 -0.0500006 0.00109994
2.175 -0.0500007 0.00109994
2.1875 -0.0500007 0.00109994
2.2 -0.0500007 0.00109994
2.2125 -0.0500007 0.00109994
2.225 -0.0500007 0.00109995
2.2375 -0.0500007 0.00109995
2.25 -0.0500007 0.00109995
2.2625 -0.0500007 0.00109995
2.275 -0.0500007 0.00109995
2.2875 -0.0500007 0.00109995
2.3 -0.0500007 0.00109995
2.3125 -0.0500007 0.00109995
2.325 -0.0500007 0.00109995
2.3375 -0.0500007 0.00109995
2.35 -0.0500007 0.00109995
2.3625 -0.0500007 0.00109995
2.375 -0.0500007 0.00109995
2.3875 -0.0500007 0.00109996
2.4 -0.0500007 0.00109996
2.4125 -0.0500007 0.00109996
2.425 -0.0500007 0.00109996
2.4375 -0.0500007 0.00109996
2.45 -0.0500007 0.00109996
2.4625 -0.0500007 0.00109996
2.475 -0.0500007 0.00109996
2.4875 -0.0500007 0.00109996
2.5 -0.0500007 0.00109996
2.5125 -0.0500007 0.00109996
2.525 -0.0500007 0.00109996
2.5375 -0.0500007 0.00109996
2.55 -0.0500007 0.00109996
2.5625 -0.0500007 0.00109997
2.575 -0.0500007 0.00109997
2.5875 -0.0500007 0.00109997
2.6 -0.0500007 0.00109997
2.6125 -0.0500007 0.00109997
2.625 -0.0500007 0.00109997
2.6375 -0.0500007 0.00109997
2.65 -0.0500007 0.00109997
2.6625 -0.0500007 0.00109997
2.675 -0.0500007 0.00109997
2.6875 -0.0500007 0.00109997
2.7 -0.0500007 0.00109997
2.7125 -0.0500007 0.00109997
2.725 -0.0500007 0.00109997
2.7375 -0.0500007 0.00109997
2.75 -0.0500007 0.00109997
2.7625 -0.0500007 0.00109998
2.775 -0.0500007 0.00109998
2.7875 -0.0500007 0.00109998
2.8 -0.0500007 0.00109998
2.8125 -0.0500007 0.00109998
2.825 -0.0500007 0.00109998
2.8375 -0.0500007 0.00109998
2.85 -0.0500007 0.00109998
2.8625 -0.0500008 0.00109998
2.875 -0.0500008 0.00109998
2.8875 -0.0500008 0.00109998
2.9 -0.0500008 0.00109998
2.9125 -0.0500008 0.00109998
2.925 -0.0500008 0.00109998
2.9375 -0.0500008 0.00109998
2.95 -0.0500008 0.00109998
2.9625 -0.0500008 0.00109998
2.975 -0.0500008 0.00109998
2.9875 -0.0500008 0.00109998
3 -0.0500008 0.00109998
3.0125 -0.0500008 0.00109999
3.025 -0.0500008 0.00109999
3.0375 -0.0500008 0.00109999
3.05 -0.0500008 0.00109999
3.0625 -0.0500008 0.00109999
3.075 -0.0500008 0.00109999
3.0875 -0.0500008 0.00109999
3.1 -0.0500008 0.00109999
3.1125 -0.0500008 0.00109999
3.125 -0.0500008 0.00109999
3.1375 -0.0500008 0.00109999
3.15 -0.0500008 0.00109999
3.1625 -0.0500008 0.00109999
3.175 -0.0500008 0.00109999
3.1875 -0.0500008 0.00109999
3.2 -0.0500008 0.00109999
3.2125 -0.0500008 0.00109999
3.225 -0.0500008 0.00109999
3.2375 -0.0500008 0.00109999
3.25 -0.0500008 0.00109999
3.2625 -0.0500008 0.00109999
3.275 -0.0500008 0.00109999
3.2875 -0.0500008 0.00109999
3.3 -0.0500008 0.00109999
3.3125 -0.0500008 0.00109999
3.325 -0.0500008 0.00109999
3.3375 -0.0500008 0.00109999
3.35 -0.0500008 0.0011
3.3625 -0.0500008 0.0011
[...]
POINT_DATA 15780
 FIELD attributes 1
U 3 15780 float
30.0002 	-7.01775e-06 	-6.30587e-06 30.0002 	-6.84326e-06 	-6.51454e-06 30.0002 	-6.66878e-06 	-6.72321e-06 30.0002 	-6.4943e-06 	-6.93188e-06 30.0002 	-6.31981e-06 	-7.14055e-06 30.0002 	-6.14533e-06 	-7.34921e-06 30.0004 	-1.23849e-05 	-1.26098e-06 30.0004 	-1.23849e-05 	-1.26097e-06 30.0004 	-1.23849e-05 	-1.26097e-06 30.0004 	-1.23849e-05 	-1.26097e-06 30.0002 	-7.04212e-08 	-6.84366e-06 30.0005 	-1.07088e-05 	-1.68702e-06 30.0005 	-1.07088e-05 	-1.68702e-06 30.0005 	-1.07088e-05 	-1.68702e-06 30.0005 	-1.07088e-05 	-1.68702e-06 30.0002 	-7.21098e-08 	-6.59607e-06 30.0005 	-9.95827e-06 	-2.0802e-06 30.0005 	-9.95826e-06 	-2.0802e-06 30.0005 	-9.95825e-06 	-2.0802e-06 30.0005 	-9.95825e-06 	-2.0802e-06 30.0003 	-4.59298e-06 	-6.24726e-06 30.0005 	-9.69151e-06 	-2.34893e-06 30.0005 	-9.6915e-06 	-2.34893e-06 30.0005 	-9.69149e-06 	-2.34893e-06 30.0005 	-9.69148e-06 	-2.34892e-06 30.0003 	-7.57256e-08 	-6.57615e-06 30.0005 	-9.52336e-06 	-2.4978e-06 30.0005 	-9.52335e-06 	-2.4978e-06 30.0005 	-9.52334e-06 	-2.49779e-06 30.0005 	-9.52333e-06 	-2.49779e-06 30.0003 	-7.7494e-08 	-6.52626e-06 30.0005 	-9.38699e-06 	-2.55604e-06 30.0005 	-9.38698e-06 	-2.55604e-06 30.0005 	-9.38698e-06 	-2.55604e-06 30.0005 	-9.38697e-06 	-2.55603e-06 30.0003 	-4.26682e-06 	-6.08528e-06 30.0005 	-9.27957e-06 	-2.55828e-06 30.0005 	-9.27956e-06 	-2.55827e-06 30.0005 	-9.27955e-06 	-2.55827e-06 30.0005 	-9.27954e-06 	-2.55827e-06 30.0003 	-4.19923e-06 	-5.97789e-06 30.0006 	-9.18741e-06 	-2.53041e-06 30.0006 	-9.1874e-06 	-2.53041e-06 30.0006 	-9.18739e-06 	-2.53041e-06 30.0006 	-9.18738e-06 	-2.53041e-06 30.0003 	-8.28174e-08 	-6.20126e-06 30.0006 	-9.09735e-06 	-2.48117e-06 30.0006 	-9.09734e-06 	-2.48116e-06 30.0006 	-9.09733e-06 	-2.48116e-06 30.0006 	-9.09732e-06 	-2.48116e-06 30.0003 	-8.4571e-08 	-6.05423e-06 30.0006 	-9.00488e-06 	-2.4136e-06 30.0006 	-9.00488e-06 	-2.4136e-06 30.0006 	-9.00487e-06 	-2.4136e-06 30.0006 	-9.00486e-06 	-2.41359e-06 30.0003 	-8.63222e-08 	-5.88782e-06 30.0006 	-8.90873e-06 	-2.32972e-06 30.0006 	-8.90873e-06 	-2.32972e-06 30.0006 	-8.90872e-06 	-2.32971e-06 30.0006 	-8.90871e-06 	-2.32971e-06 30.0003 	-3.93783e-06 	-5.36347e-06 30.0006 	-8.80869e-06 	-2.23274e-06 30.0006 	-8.80868e-06 	-2.23274e-06 30.0006 	-8.80867e-06 	-2.23273e-06 30.0006 	-8.80866e-06 	-2.23273e-06 30.0003 	-3.86405e-06 	-5.16475e-06 30.0006 	-8.70442e-06 	-2.12413e-06 30.0006 	-8.70442e-06 	-2.12413e-06 30.0006 	-8.70441e-06 	-2.12413e-06 30.0006 	-8.7044e-06 	-2.12413e-06 30.0003 	-9.15819e-08 	-5.28457e-06 30.0006 	-8.59622e-06 	-2.00507e-06 30.0006 	-8.59621e-06 	-2.00507e-06 30.0006 	-8.59621e-06 	-2.00507e-06 30.0006 	-8.5962e-06 	-2.00507e-06 30.0003 	-3.70443e-06 	-4.71939e-06 30.0007 	-8.48484e-06 	-1.87667e-06 30.0007 	-8.48483e-06 	-1.87667e-06 30.0007 	-8.48483e-06 	-1.87667e-06 30.0007 	-8.48482e-06 	-1.87667e-06 30.0003 	-3.61932e-06 	-4.47431e-06 30.0007 	-8.37148e-06 	-1.73883e-06 30.0007 	-8.37148e-06 	-1.73883e-06 30.0007 	-8.37147e-06 	-1.73883e-06 30.0007 	-8.37147e-06 	-1.73882e-06 30.0004 	-9.67831e-08 	-4.54318e-06 30.0007 	-8.25988e-06 	-1.59802e-06 30.0007 	-8.25988e-06 	-1.59802e-06 30.0007 	-8.25987e-06 	-1.59802e-06 30.0007 	-8.25987e-06 	-1.59802e-06 30.0004 	-9.85044e-08 	-4.27122e-06 30.0007 	-8.14786e-06 	-1.46322e-06 30.0007 	-8.14785e-06 	-1.46322e-06 30.0007 	-8.14785e-06 	-1.46322e-06 30.0007 	-8.14784e-06 	-1.46321e-06 30.0004 	-1.0022e-07 	-3.98925e-06 30.0007 	-8.01976e-06 	-1.32071e-06 30.0007 	-8.01975e-06 	-1.32071e-06 30.0007 	-8.01975e-06 	-1.32071e-06 30.0007 	-8.01974e-06 	-1.3207e-06 30.0004 	-3.25089e-06 	-3.37794e-06 30.0007 	-7.88093e-06 	-1.16799e-06 30.0007 	-7.88093e-06 	-1.16799e-06 30.0007 	-7.88093e-06 	-1.16799e-06 30.0007 	-7.88092e-06 	-1.16799e-06 30.0004 	-1.03614e-07 	-3.40286e-06 30.0007 	-7.74498e-06 	-1.00786e-06 30.0007 	-7.74498e-06 	-1.00786e-06 30.0007 	-7.74498e-06 	-1.00786e-06 30.0007 	-7.74497e-06 	-1.00786e-06 30.0004 	-1.05305e-07 	-3.10325e-06 30.0007 	-7.61082e-06 	-8.41843e-07 30.0007 	-7.61082e-06 	-8.41843e-07 30.0007 	-7.61082e-06 	-8.41842e-07 30.0007 	-7.61081e-06 	-8.41842e-07 30.0004 	-2.93166e-06 	-2.48787e-06 30.0007 	-7.47502e-06 	-6.70189e-07 30.0007 	-7.47502e-06 	-6.70189e-07 30.0007 	-7.47502e-06 	-6.70189e-07 30.0007 	-7.47501e-06 	-6.70189e-07 30.0004 	-2.82517e-06 	-2.18312e-06 30.0007 	-7.34285e-06 	-4.97033e-07 30.0007 	-7.34285e-06 	-4.97033e-07 30.0007 	-7.34285e-06 	-4.97033e-07 30.0007 	-7.34284e-06 	-4.97032e-07 30.0004 	-1.10338e-07 	-2.17109e-06 30.0007 	-7.21502e-06 	-3.17305e-07 30.0007 	-7.21502e-06 	-3.17305e-07 30.0007 	-7.21502e-06 	-3.17305e-07 30.0007 	-7.21502e-06 	-3.17305e-07 30.0004 	-1.11996e-07 	-1.85334e-06 30.0007 	-7.09825e-06 	-1.38199e-07 30.0007 	-7.09825e-06 	-1.38199e-07 30.0007 	-7.09825e-06 	-1.38199e-07 30.0007 	-7.09825e-06 	-1.38199e-07 30.0004 	-1.13638e-07 	-1.54901e-06 30.0007 	-6.98489e-06 	4.08674e-08 30.0007 	-6.98489e-06 	4.08674e-08 30.0007 	-6.98489e-06 	4.08674e-08 30.0007 	-6.98489e-06 	4.08674e-08 30.0004 	-2.43865e-06 	-9.58496e-07 30.0007 	-6.87127e-06 	2.14685e-07 30.0007 	-6.87127e-06 	2.14685e-07 30.0007 	-6.87127e-06 	2.14685e-07 30.0007 	-6.87127e-06 	2.14685e-07 30.0004 	-2.34703e-06 	-6.82295e-07 30.0007 	-6.75307e-06 	3.90736e-07 30.0007 	-6.75307e-06 	3.90736e-07 30.0007 	-6.75307e-06 	3.90736e-07 30.0007 	-6.75307e-06 	3.90736e-07 30.0004 	-1.18548e-07 	-7.09752e-07 30.0007 	-6.64252e-06 	5.64388e-07 30.0007 	-6.64252e-06 	5.64388e-07 30.0007 	-6.64253e-06 	5.64388e-07 30.0007 	-6.64253e-06 	5.64389e-07 30.0004 	-2.16665e-06 	-1.45434e-07 30.0007 	-6.53552e-06 	7.27415e-07 30.0007 	-6.53552e-06 	7.27415e-07 30.0007 	-6.53552e-06 	7.27415e-07 30.0007 	-6.53552e-06 	7.27415e-07 30.0004 	-2.08097e-06 	1.13845e-07 30.0007 	-6.4302e-06 	8.78856e-07 30.0007 	-6.4302e-06 	8.78856e-07 30.0007 	-6.4302e-06 	8.78856e-07 30.0007 	-6.4302e-06 	8.78856e-07 30.0004 	-1.23429e-07 	7.05994e-08 30.0007 	-6.3226e-06 	1.0178e-06 30.0007 	-6.32261e-06 	1.01781e-06 30.0007 	-6.32261e-06 	1.01781e-06 30.0007 	-6.32261e-06 	1.01781e-06 30.0004 	-1.25015e-07 	3.1583e-07 30.0007 	-6.21622e-06 	1.14063e-06 30.0007 	-6.21622e-06 	1.14063e-06 30.0007 	-6.21623e-06 	1.14063e-06 30.0007 	-6.21623e-06 	1.14064e-06 30.0004 	-1.26594e-07 	5.45546e-07 30.0007 	-6.11494e-06 	1.25633e-06 30.0007 	-6.11494e-06 	1.25633e-06 30.0007 	-6.11494e-06 	1.25633e-06 30.0007 	-6.11495e-06 	1.25634e-06 30.0004 	-1.76413e-06 	1.03209e-06 30.0007 	-6.02219e-06 	1.37129e-06 30.0007 	-6.0222e-06 	1.37129e-06 30.0007 	-6.0222e-06 	1.37129e-06 30.0007 	-6.0222e-06 	1.37129e-06 30.0004 	-1.29684e-07 	9.36962e-07 30.0007 	-5.94253e-06 	1.48852e-06 30.0007 	-5.94253e-06 	1.48852e-06 30.0007 	-5.94254e-06 	1.48852e-06 30.0007 	-5.94254e-06 	1.48852e-06 30.0004 	-1.31183e-07 	1.10458e-06 30.0007 	-5.87131e-06 	1.59291e-06 30.0007 	-5.87131e-06 	1.59291e-06 30.0007 	-5.87132e-06 	1.59291e-06 30.0007 	-5.87132e-06 	1.59291e-06 30.0004 	-1.59125e-06 	1.53878e-06 30.0007 	-5.80169e-06 	1.67933e-06 30.0007 	-5.8017e-06 	1.67934e-06 30.0007 	-5.8017e-06 	1.67934e-06 30.0007 	-5.8017e-06 	1.67934e-06 30.0003 	-1.54403e-06 	1.67823e-06 30.0007 	-5.7336e-06 	1.75013e-06 30.0007 	-5.73361e-06 	1.75013e-06 30.0007 	-5.73361e-06 	1.75013e-06 30.0007 	-5.73362e-06 	1.75013e-06 30.0003 	-1.35888e-07 	1.52475e-06 30.0006 	-5.66846e-06 	1.80983e-06 30.0006 	-5.66847e-06 	1.80983e-06 30.0006 	-5.66847e-06 	1.80983e-06 30.0006 	-5.66848e-06 	1.80983e-06 30.0003 	-1.37444e-07 	1.6323e-06 30.0006 	-5.60839e-06 	1.85996e-06 30.0006 	-5.60839e-06 	1.85996e-06 30.0006 	-5.60839e-06 	1.85996e-06 30.0006 	-5.6084e-06 	1.85996e-06 30.0003 	-1.38916e-07 	1.72402e-06 30.0006 	-5.55409e-06 	1.90045e-06 30.0006 	-5.5541e-06 	1.90045e-06 30.0006 	-5.5541e-06 	1.90046e-06 30.0006 	-5.5541e-06 	1.90046e-06 30.0003 	-1.38872e-06 	2.07106e-06 30.0006 	-5.50526e-06 	1.93112e-06 30.0006 	-5.50526e-06 	1.93112e-06 30.0006 	-5.50527e-06 	1.93112e-06 30.0006 	-5.50527e-06 	1.93112e-06 30.0003 	-1.36169e-06 	2.13099e-06 30.0006 	-5.46153e-06 	1.95186e-06 30.0006 	-5.46153e-06 	1.95186e-06 30.0006 	-5.46154e-06 	1.95186e-06 30.0006 	-5.46154e-06 	1.95186e-06 30.0003 	-1.42968e-07 	1.90829e-06 30.0006 	-5.42275e-06 	1.9628e-06 30.0006 	-5.42276e-06 	1.96281e-06 30.0006 	-5.42276e-06 	1.96281e-06 30.0006 	-5.42277e-06 	1.96281e-06 30.0003 	-1.32332e-06 	2.20769e-06 30.0006 	-5.3888e-06 	1.96434e-06 30.0006 	-5.3888e-06 	1.96434e-06 30.0006 	-5.3888e-06 	1.96434e-06 30.0006 	-5.38881e-06 	1.96434e-06 30.0003 	-1.31156e-06 	2.22557e-06 30.0006 	-5.35963e-06 	1.95694e-06 30.0006 	-5.35964e-06 	1.95694e-06 30.0006 	-5.35964e-06 	1.95694e-06 30.0006 	-5.35964e-06 	1.95694e-06 30.0003 	-1.46874e-07 	1.9662e-06 30.0005 	-5.33518e-06 	1.94114e-06 30.0005 	-5.33519e-06 	1.94114e-06 30.0005 	-5.33519e-06 	1.94114e-06 30.0005 	-5.33519e-06 	1.94115e-06 30.0003 	-1.48142e-07 	1.9606e-06 30.0005 	-5.31519e-06 	1.91795e-06 30.0005 	-5.3152e-06 	1.91795e-06 30.0005 	-5.3152e-06 	1.91795e-06 30.0005 	-5.31521e-06 	1.91796e-06 30.0003 	-1.4936e-07 	1.94427e-06 30.0005 	-5.2996e-06 	1.88802e-06 30.0005 	-5.2996e-06 	1.88802e-06 30.0005 	-5.29961e-06 	1.88803e-06 30.0005 	-5.29961e-06 	1.88803e-06 30.0003 	-1.30902e-06 	2.17904e-06 30.0005 	-5.28826e-06 	1.85193e-06 30.0005 	-5.28826e-06 	1.85193e-06 30.0005 	-5.28827e-06 	1.85193e-06 30.0005 	-5.28827e-06 	1.85193e-06 30.0003 	-1.51714e-07 	1.88233e-06 30.0005 	-5.281e-06 	1.81011e-06 30.0005 	-5.281e-06 	1.81011e-06 30.0005 	-5.281e-06 	1.81011e-06 30.0005 	-5.28101e-06 	1.81011e-06 30.0003 	-1.5284e-07 	1.83821e-06 30.0005 	-5.27756e-06 	1.76319e-06 30.0005 	-5.27756e-06 	1.76319e-06 30.0005 	-5.27757e-06 	1.76319e-06 30.0005 	-5.27757e-06 	1.76319e-06 30.0003 	-1.34825e-06 	2.04412e-06 30.0005 	-5.27774e-06 	1.71165e-06 30.0005 	-5.27774e-06 	1.71165e-06 30.0005 	-5.27775e-06 	1.71166e-06 30.0005 	-5.27775e-06 	1.71166e-06 30.0003 	-1.36833e-06 	1.98428e-06 30.0005 	-5.28132e-06 	1.65602e-06 30.0005 	-5.28132e-06 	1.65602e-06 30.0005 	-5.28132e-06 	1.65602e-06 30.0005 	-5.28133e-06 	1.65603e-06 30.0002 	-1.56071e-07 	1.66285e-06 30.0005 	-5.28813e-06 	1.59671e-06 30.0005 	-5.28813e-06 	1.59671e-06 30.0005 	-5.28813e-06 	1.59671e-06 30.0005 	-5.28813e-06 	1.59671e-06 30.0002 	-1.57131e-07 	1.5926e-06 30.0004 	-5.29808e-06 	1.53419e-06 30.0004 	-5.29809e-06 	1.53419e-06 30.0004 	-5.29809e-06 	1.53419e-06 30.0004 	-5.29809e-06 	1.53419e-06 30.0002 	-1.5821e-07 	1.51773e-06 30.0004 	-5.31104e-06 	1.46893e-06 30.0004 	-5.31104e-06 	1.46893e-06 30.0004 	-5.31104e-06 	1.46893e-06 30.0004 	-5.31105e-06 	1.46893e-06 30.0002 	-1.48001e-06 	1.69067e-06 30.0004 	-5.3266e-06 	1.40148e-06 30.0004 	-5.3266e-06 	1.40148e-06 30.0004 	-5.3266e-06 	1.40148e-06 30.0004 	-5.3266e-06 	1.40148e-06 30.0002 	-1.51454e-06 	1.60718e-06 30.0004 	-5.34451e-06 	1.33223e-06 30.0004 	-5.34451e-06 	1.33223e-06 30.0004 	-5.34451e-06 	1.33223e-06 30.0004 	-5.34452e-06 	1.33224e-06 30.0002 	-1.61485e-07 	1.27191e-06 30.0004 	-5.36455e-06 	1.26152e-06 30.0004 	-5.36455e-06 	1.26152e-06 30.0004 	-5.36456e-06 	1.26152e-06 30.0004 	-5.36456e-06 	1.26152e-06 30.0002 	-1.58989e-06 	1.43254e-06 30.0004 	-5.38638e-06 	1.18985e-06 30.0004 	-5.38638e-06 	1.18985e-06 30.0004 	-5.38638e-06 	1.18985e-06 30.0004 	-5.38639e-06 	1.18985e-06 30.0002 	-1.63038e-06 	1.34246e-06 30.0004 	-5.41002e-06 	1.11752e-06 30.0004 	-5.41003e-06 	1.11752e-06 30.0004 	-5.41003e-06 	1.11753e-06 30.0004 	-5.41003e-06 	1.11753e-06 30.0002 	-1.64527e-07 	1.00613e-06 30.0004 	-5.43517e-06 	1.04485e-06 30.0004 	-5.43517e-06 	1.04485e-06 30.0004 	-5.43517e-06 	1.04485e-06 30.0004 	-5.43517e-06 	1.04485e-06 30.0002 	-1.65479e-07 	9.15659e-07 30.0004 	-5.46084e-06 	9.7231e-07 30.0004 	-5.46085e-06 	9.7231e-07 30.0004 	-5.46085e-06 	9.7231e-07 30.0004 	-5.46085e-06 	9.72311e-07 30.0002 	-1.66388e-07 	8.25037e-07 30.0004 	-5.48691e-06 	8.99533e-07 30.0004 	-5.48691e-06 	8.99533e-07 30.0004 	-5.48691e-06 	8.99533e-07 30.0004 	-5.48691e-06 	8.99534e-07 30.0002 	-1.8073e-06 	9.75467e-07 30.0004 	-5.51371e-06 	8.26e-07 30.0004 	-5.51371e-06 	8.26e-07 30.0004 	-5.51371e-06 	8.26e-07 30.0004 	-5.51372e-06 	8.26e-07 30.0002 	-1.68105e-07 	6.4367e-07 30.0003 	-5.54347e-06 	7.52039e-07 30.0003 	-5.54347e-06 	7.5204e-07 30.0003 	-5.54347e-06 	7.5204e-07 30.0003 	-5.54348e-06 	7.5204e-07 30.0002 	-1.68929e-07 	5.52676e-07 30.0003 	-5.57797e-06 	6.77496e-07 30.0003 	-5.57797e-06 	6.77496e-07 30.0003 	-5.57797e-06 	6.77496e-07 30.0003 	-5.57797e-06 	6.77496e-07 30.0002 	-1.95569e-06 	7.0136e-07 30.0003 	-5.61484e-06 	6.04432e-07 30.0003 	-5.61484e-06 	6.04433e-07 30.0003 	-5.61484e-06 	6.04433e-07 30.0003 	-5.61484e-06 	6.04433e-07 30.0002 	-2.00788e-06 	6.11729e-07 30.0003 	-5.65092e-06 	5.34713e-07 30.0003 	-5.65092e-06 	5.34713e-07 30.0003 	-5.65092e-06 	5.34713e-07 30.0003 	-5.65093e-06 	5.34713e-07 30.0002 	-1.71427e-07 	2.80981e-07 30.0003 	-5.68204e-06 	4.67688e-07 30.0003 	-5.68204e-06 	4.67689e-07 30.0003 	-5.68204e-06 	4.67689e-07 30.0003 	-5.68204e-06 	4.67689e-07 30.0002 	-1.72258e-07 	1.97366e-07 30.0003 	-5.71047e-06 	4.03244e-07 30.0003 	-5.71047e-06 	4.03244e-07 30.0003 	-5.71047e-06 	4.03244e-07 30.0003 	-5.71047e-06 	4.03244e-07 30.0002 	-1.73059e-07 	1.16435e-07 30.0003 	-5.73865e-06 	3.39283e-07 30.0003 	-5.73865e-06 	3.39283e-07 30.0003 	-5.73865e-06 	3.39283e-07 30.0003 	-5.73865e-06 	3.39283e-07 30.0002 	-2.20115e-06 	2.74127e-07 30.0003 	-5.76663e-06 	2.75319e-07 30.0003 	-5.76664e-06 	2.75319e-07 30.0003 	-5.76664e-06 	2.75319e-07 30.0003 	-5.76664e-06 	2.75319e-07 30.0002 	-2.24808e-06 	1.96383e-07 30.0003 	-5.79337e-06 	2.10829e-07 30.0003 	-5.79337e-06 	2.1083e-07 30.0003 	-5.79337e-06 	2.1083e-07 30.0003 	-5.79337e-06 	2.1083e-07 30.0002 	-1.75228e-07 	-1.09115e-07 30.0003 	-5.82138e-06 	1.48817e-07 30.0003 	-5.82138e-06 	1.48817e-07 30.0003 	-5.82138e-06 	1.48818e-07 30.0003 	-5.82138e-06 	1.48818e-07 30.0002 	-2.34185e-06 	4.46954e-08 30.0003 	-5.85064e-06 	9.00236e-08 30.0003 	-5.85064e-06 	9.00236e-08 30.0003 	-5.85064e-06 	9.00236e-08 30.0003 	-5.85064e-06 	9.00236e-08 30.0002 	-2.38916e-06 	-2.90798e-08 30.0003 	-5.88107e-06 	3.4853e-08 30.0003 	-5.88107e-06 	3.4853e-08 30.0003 	-5.88107e-06 	3.4853e-08 30.0003 	-5.88107e-06 	3.4853e-08 30.0002 	-1.77229e-07 	-3.30746e-07 30.0003 	-5.91279e-06 	-1.7035e-08 30.0003 	-5.91279e-06 	-1.7035e-08 30.0003 	-5.91279e-06 	-1.7035e-08 30.0003 	-5.91279e-06 	-1.7035e-08 30.0002 	-1.77852e-07 	-4.01783e-07 30.0003 	-5.94593e-06 	-6.90154e-08 30.0003 	-5.94593e-06 	-6.90154e-08 30.0003 	-5.94593e-06 	-6.90154e-08 30.0003 	-5.94593e-06 	-6.90154e-08 30.0002 	-1.78462e-07 	-4.67056e-07 30.0003 	-5.9779e-06 	-1.23276e-07 30.0003 	-5.9779e-06 	-1.23276e-07 30.0003 	-5.9779e-06 	-1.23276e-07 30.0003 	-5.9779e-06 	-1.23276e-07 30.0002 	-2.5807e-06 	-3.0136e-07 30.0003 	-6.00569e-06 	-1.77921e-07 30.0003 	-6.00569e-06 	-1.77921e-07 30.0003 	-6.00569e-06 	-1.77921e-07 30.0003 	-6.00569e-06 	-1.77921e-07 30.0002 	-1.79654e-07 	-5.84871e-07 30.0003 	-6.02982e-06 	-2.2918e-07 30.0003 	-6.02982e-06 	-2.2918e-07 30.0003 	-6.02982e-06 	-2.2918e-07 30.0003 	-6.02982e-06 	-2.2918e-07 30.0002 	-1.80245e-07 	-6.42135e-07 30.0003 	-6.05307e-06 	-2.76144e-07 30.0003 	-6.05307e-06 	-2.76143e-07 30.0003 	-6.05307e-06 	-2.76143e-07 30.0003 	-6.05307e-06 	-2.76143e-07 30.0002 	-2.70877e-06 	-4.78964e-07 30.0003 	-6.07694e-06 	-3.1962e-07 30.0003 	-6.07694e-06 	-3.1962e-07 30.0003 	-6.07694e-06 	-3.1962e-07 30.0003 	-6.07694e-06 	-3.1962e-07 30.0002 	-2.7498e-06 	-5.3401e-07 30.0003 	-6.10116e-06 	-3.61158e-07 30.0003 	-6.10116e-06 	-3.61157e-07 30.0003 	-6.10116e-06 	-3.61157e-07 30.0003 	-6.10116e-06 	-3.61157e-07 30.0002 	-1.81992e-07 	-8.03777e-07 30.0003 	-6.12521e-06 	-4.01354e-07 30.0003 	-6.12521e-06 	-4.01354e-07 30.0003 	-6.1252e-06 	-4.01354e-07 30.0003 	-6.1252e-06 	-4.01354e-07 30.0001 	-1.82544e-07 	-8.53097e-07 30.0003 	-6.14862e-06 	-4.40349e-07 30.0003 	-6.14862e-06 	-4.40349e-07 30.0003 	-6.14862e-06 	-4.40348e-07 30.0003 	-6.14862e-06 	-4.40348e-07 30.0001 	-1.83085e-07 	-9.00307e-07 30.0003 	-6.17129e-06 	-4.77966e-07 30.0003 	-6.17129e-06 	-4.77966e-07 30.0003 	-6.17128e-06 	-4.77965e-07 30.0003 	-6.17128e-06 	-4.77965e-07 30.0001 	-2.90931e-06 	-7.31443e-07 30.0003 	-6.19309e-06 	-5.1418e-07 30.0003 	-6.19309e-06 	-5.1418e-07 30.0003 	-6.19309e-06 	-5.1418e-07 30.0003 	-6.19309e-06 	-5.1418e-07 30.0001 	-2.94719e-06 	-7.75571e-07 30.0003 	-6.214e-06 	-5.48806e-07 30.0003 	-6.214e-06 	-5.48806e-07 30.0003 	-6.214e-06 	-5.48806e-07 30.0003 	-6.214e-06 	-5.48806e-07 30.0001 	-1.84615e-07 	-1.02952e-06 30.0003 	-6.23411e-06 	-5.82024e-07 30.0003 	-6.23411e-06 	-5.82023e-07 30.0003 	-6.2341e-06 	-5.82023e-07 30.0003 	-6.2341e-06 	-5.82023e-07 30.0001 	-3.02019e-06 	-8.57461e-07 30.0003 	-6.25339e-06 	-6.13863e-07 30.0003 	-6.25339e-06 	-6.13863e-07 30.0003 	-6.25339e-06 	-6.13863e-07 30.0003 	-6.25339e-06 	-6.13863e-07 30.0001 	-3.05529e-06 	-8.9547e-07 30.0003 	-6.27189e-06 	-6.44388e-07 30.0003 	-6.27189e-06 	-6.44388e-07 30.0003 	-6.27189e-06 	-6.44388e-07 30.0003 	-6.27188e-06 	-6.44388e-07 30.0001 	-1.86047e-07 	-1.14084e-06 30.0003 	-6.2896e-06 	-6.73589e-07 30.0003 	-6.2896e-06 	-6.73589e-07 30.0003 	-6.2896e-06 	-6.73588e-07 30.0003 	-6.28959e-06 	-6.73588e-07 30.0001 	-1.86497e-07 	-1.1746e-06 30.0003 	-6.30663e-06 	-7.01406e-07 30.0003 	-6.30663e-06 	-7.01406e-07 30.0003 	-6.30663e-06 	-7.01406e-07 30.0003 	-6.30663e-06 	-7.01406e-07 30.0001 	-1.86952e-07 	-1.20668e-06 30.0003 	-6.32273e-06 	-7.27834e-07 30.0003 	-6.32273e-06 	-7.27834e-07 30.0003 	-6.32273e-06 	-7.27834e-07 30.0003 	-6.32273e-06 	-7.27833e-07 30.0001 	-3.18675e-06 	-1.03099e-06 30.0003 	-6.33801e-06 	-7.52947e-07 30.0003 	-6.33801e-06 	-7.52946e-07 30.0003 	-6.33801e-06 	-7.52946e-07 30.0003 	-6.338e-06 	-7.52946e-07 30.0001 	-1.87827e-07 	-1.26597e-06 30.0003 	-6.35253e-06 	-7.76916e-07 30.0003 	-6.35253e-06 	-7.76916e-07 30.0003 	-6.35253e-06 	-7.76916e-07 30.0003 	-6.35253e-06 	-7.76915e-07 30.0001 	-1.88239e-07 	-1.29332e-06 30.0003 	-6.36635e-06 	-7.99786e-07 30.0003 	-6.36635e-06 	-7.99786e-07 30.0003 	-6.36635e-06 	-7.99786e-07 30.0003 	-6.36634e-06 	-7.99785e-07 30.0001 	-3.27617e-06 	-1.11604e-06 30.0003 	-6.37944e-06 	-8.21512e-07 30.0003 	-6.37944e-06 	-8.21511e-07 30.0003 	-6.37944e-06 	-8.21511e-07 30.0003 	-6.37944e-06 	-8.21511e-07 30.0001 	-3.30428e-06 	-1.14152e-06 30.0003 	-6.39174e-06 	-8.41951e-07 30.0003 	-6.39173e-06 	-8.4195e-07 30.0003 	-6.39173e-06 	-8.4195e-07 30.0003 	-6.39173e-06 	-8.4195e-07 30.0001 	-1.89443e-07 	-1.36687e-06 30.0003 	-6.40337e-06 	-8.61342e-07 30.0003 	-6.40337e-06 	-8.61341e-07 30.0003 	-6.40337e-06 	-8.61341e-07 30.0003 	-6.40336e-06 	-8.61341e-07 30.0001 	-1.8983e-07 	-1.38874e-06 30.0003 	-6.41433e-06 	-8.79779e-07 30.0003 	-6.41432e-06 	-8.79779e-07 30.0003 	-6.41432e-06 	-8.79779e-07 30.0003 	-6.41432e-06 	-8.79779e-07 30.0001 	-1.90212e-07 	-1.40939e-06 30.0003 	-6.42458e-06 	-8.9726e-07 30.0003 	-6.42458e-06 	-8.9726e-07 30.0003 	-6.42457e-06 	-8.9726e-07 30.0003 	-6.42457e-06 	-8.9726e-07 30.0001 	-3.4086e-06 	-1.23052e-06 30.0003 	-6.43416e-06 	-9.13845e-07 30.0003 	-6.43416e-06 	-9.13845e-07 30.0003 	-6.43416e-06 	-9.13844e-07 30.0003 	-6.43415e-06 	-9.13844e-07 30.0001 	-3.43273e-06 	-1.24985e-06 30.0003 	-6.44304e-06 	-9.29533e-07 30.0003 	-6.44304e-06 	-9.29533e-07 30.0003 	-6.44303e-06 	-9.29532e-07 30.0003 	-6.44303e-06 	-9.29532e-07 30.0001 	-1.91295e-07 	-1.46456e-06 30.0003 	-6.45131e-06 	-9.44388e-07 30.0003 	-6.4513e-06 	-9.44388e-07 30.0003 	-6.4513e-06 	-9.44388e-07 30.0003 	-6.4513e-06 	-9.44387e-07 30.0001 	-3.47879e-06 	-1.28534e-06 30.0003 	-6.45899e-06 	-9.5839e-07 30.0003 	-6.45898e-06 	-9.5839e-07 30.0003 	-6.45898e-06 	-9.5839e-07 30.0003 	-6.45898e-06 	-9.58389e-07 30.0001 	-3.50084e-06 	-1.30161e-06 30.0003 	-6.46607e-06 	-9.71684e-07 30.0003 	-6.46607e-06 	-9.71683e-07 30.0003 	-6.46606e-06 	-9.71683e-07 30.0003 	-6.46606e-06 	-9.71683e-07 30.0001 	-1.92312