# vtk DataFile Version 2.0
track0
ASCII
DATASET POLYDATA
POINTS 15780 float
-1.001 -0.05 0.0011
-1.0008 -0.05 0.0011
-1.0006 -0.05 0.0011
-1.0004 -0.05 0.0011
-1.0002 -0.05 0.0011
-1 -0.05 0.0011
-0.9875 -0.05 0.0011
-0.975 -0.05 0.0011
-0.9625 -0.05 0.0011
-0.95 -0.05 0.0011
-0.9375 -0.05 0.00109999
-0.925 -0.05 0.00109999
-0.9125 -0.05 0.00109999
-0.9 -0.05 0.00109999
-0.8875 -0.05 0.00109999
-0.875 -0.05 0.00109999
-0.8625 -0.05 0.00109999
-0.85 -0.05 0.00109999
-0.8375 -0.05 0.00109998
-0.825 -0.0500001 0.00109998
-0.8125 -0.0500001 0.00109998
-0.8 -0.0500001 0.00109998
-0.7875 -0.0500001 0.00109998
-0.775 -0.0500001 0.00109998
-0.7625 -0.0500001 0.00109998
-0.75 -0.0500001 0.00109998
-0.7375 -0.0500001 0.00109997
-0.725 -0.0500001 0.00109997
-0.7125 -0.0500001 0.00109997
-0.7 -0.0500001 0.00109997
-0.6875 -0.0500001 0.00109997
-0.675 -0.0500001 0.00109997
-0.6625 -0.0500001 0.00109997
-0.65 -0.0500001 0.00109996
-0.6375 -0.0500001 0.00109996
-0.625 -0.0500001 0.00109996
-0.6125 -0.0500001 0.00109996
-0.6 -0.0500001 0.00109996
-0.5875 -0.0500001 0.00109996
-0.575 -0.0500001 0.00109996
-0.5625 -0.0500001 0.00109996
-0.55 -0.0500001 0.00109995
-0.5375 -0.0500001 0.00109995
-0.525 -0.0500001 0.00109995
-0.5125 -0.0500001 0.00109995
-0.5 -0.0500001 0.00109995
-0.4875 -0.0500001 0.00109995
-0.475 -0.0500001 0.00109995
-0.4625 -0.0500001 0.00109994
-0.45 -0.0500002 0.00109994
-0.4375 -0.0500002 0.00109994
-0.425 -0.0500002 0.00109994
-0.4125 -0.0500002 0.00109994
-0.4 -0.0500002 0.00109994
-0.3875 -0.0500002 0.00109994
-0.375 -0.0500002 0.00109994
-0.3625 -0.0500002 0.00109993
-0.35 -0.0500002 0.00109993
-0.3375 -0.0500002 0.00109993
-0.325 -0.0500002 0.00109993
-0.3125 -0.0500002 0.00109993
-0.3 -0.0500002 0.00109993
-0.2875 -0.0500002 0.00109993
-0.275 -0.0500002 0.00109993
-0.2625 -0.0500002 0.00109992
-0.25 -0.0500002 0.00109992
-0.2375 -0.0500002 0.00109992
-0.225 -0.0500002 0.00109992
-0.2125 -0.0500002 0.00109992
-0.2 -0.0500002 0.00109992
-0.1875 -0.0500002 0.00109992
-0.175 -0.0500002 0.00109992
-0.1625 -0.0500002 0.00109991
-0.15 -0.0500002 0.00109991
-0.1375 -0.0500002 0.00109991
-0.125 -0.0500002 0.00109991
-0.1125 -0.0500002 0.00109991
-0.1 -0.0500002 0.00109991
-0.0875 -0.0500002 0.00109991
-0.075 -0.0500002 0.00109991
-0.0625 -0.0500002 0.00109991
-0.05 -0.0500003 0.00109991
-0.0375 -0.0500003 0.0010999
-0.025 -0.0500003 0.0010999
-0.0125 -0.0500003 0.0010999
2.10607e-13 -0.0500003 0.0010999
0.0125 -0.0500003 0.0010999
0.025 -0.0500003 0.0010999
0.0375 -0.0500003 0.0010999
0.05 -0.0500003 0.0010999
0.0625 -0.0500003 0.0010999
0.075 -0.0500003 0.0010999
0.0875 -0.0500003 0.0010999
0.1 -0.0500003 0.00109989
0.1125 -0.0500003 0.00109989
0.125 -0.0500003 0.00109989
0.1375 -0.0500003 0.00109989
0.15 -0.0500003 0.00109989
0.1625 -0.0500003 0.00109989
0.175 -0.0500003 0.00109989
0.1875 -0.0500003 0.00109989
0.2 -0.0500003 0.00109989
0.2125 -0.0500003 0.00109989
0.225 -0.0500003 0.00109989
0.2375 -0.0500003 0.00109989
0.25 -0.0500003 0.00109989
0.2625 -0.0500003 0.00109988
0.275 -0.0500003 0.00109988
0.2875 -0.0500003 0.00109988
0.3 -0.0500003 0.00109988
0.3125 -0.0500003 0.00109988
0.325 -0.0500003 0.00109988
0.3375 -0.0500003 0.00109988
0.35 -0.0500003 0.00109988
0.3625 -0.0500003 0.00109988
0.375 -0.0500003 0.00109988
0.3875 -0.0500003 0.00109988
0.4 -0.0500004 0.00109988
0.4125 -0.0500004 0.00109988
0.425 -0.0500004 0.00109988
0.4375 -0.0500004 0.00109988
0.45 -0.0500004 0.00109988
0.4625 -0.0500004 0.00109988
0.475 -0.0500004 0.00109988
0.4875 -0.0500004 0.00109988
0.5 -0.0500004 0.00109988
0.5125 -0.0500004 0.00109988
0.525 -0.0500004 0.00109988
0.5375 -0.0500004 0.00109988
0.55 -0.0500004 0.00109988
0.5625 -0.0500004 0.00109988
0.575 -0.0500004 0.00109987
0.5875 -0.0500004 0.00109987
0.6 -0.0500004 0.00109987
0.6125 -0.0500004 0.00109987
0.625 -0.0500004 0.00109987
0.6375 -0.0500004 0.00109987
0.65 -0.0500004 0.00109987
0.6625 -0.0500004 0.00109987
0.675 -0.0500004 0.00109987
0.6875 -0.0500004 0.00109987
0.7 -0.0500004 0.00109987
0.7125 -0.0500004 0.00109987
0.725 -0.0500004 0.00109987
0.7375 -0.0500004 0.00109987
0.75 -0.0500004 0.00109987
0.7625 -0.0500004 0.00109987
0.775 -0.0500004 0.00109987
0.7875 -0.0500004 0.00109987
0.8 -0.0500004 0.00109987
0.8125 -0.0500004 0.00109987
0.825 -0.0500004 0.00109987
0.8375 -0.0500004 0.00109987
0.85 -0.0500004 0.00109987
0.8625 -0.0500004 0.00109987
0.875 -0.0500004 0.00109987
0.8875 -0.0500004 0.00109987
0.9 -0.0500004 0.00109987
0.9125 -0.0500005 0.00109988
0.925 -0.0500005 0.00109988
0.9375 -0.0500005 0.00109988
0.95 -0.0500005 0.00109988
0.9625 -0.0500005 0.00109988
0.975 -0.0500005 0.00109988
0.9875 -0.0500005 0.00109988
1 -0.0500005 0.00109988
1.0125 -0.0500005 0.00109988
1.025 -0.0500005 0.00109988
1.0375 -0.0500005 0.00109988
1.05 -0.0500005 0.00109988
1.0625 -0.0500005 0.00109988
1.075 -0.0500005 0.00109988
1.0875 -0.0500005 0.00109988
1.1 -0.0500005 0.00109988
1.1125 -0.0500005 0.00109988
1.125 -0.0500005 0.00109988
1.1375 -0.0500005 0.00109988
1.15 -0.0500005 0.00109988
1.1625 -0.0500005 0.00109988
1.175 -0.0500005 0.00109988
1.1875 -0.0500005 0.00109988
1.2 -0.0500005 0.00109988
1.2125 -0.0500005 0.00109988
1.225 -0.0500005 0.00109988
1.2375 -0.0500005 0.00109989
1.25 -0.0500005 0.00109989
1.2625 -0.0500005 0.00109989
1.275 -0.0500005 0.00109989
1.2875 -0.0500005 0.00109989
1.3 -0.0500005 0.00109989
1.3125 -0.0500005 0.00109989
1.325 -0.0500005 0.00109989
1.3375 -0.0500005 0.00109989
1.35 -0.0500005 0.00109989
1.3625 -0.0500005 0.00109989
1.375 -0.0500005 0.00109989
1.3875 -0.0500005 0.00109989
1.4 -0.0500005 0.00109989
1.4125 -0.0500005 0.00109989
1.425 -0.0500005 0.00109989
1.4375 -0.0500005 0.0010999
1.45 -0.0500005 0.0010999
1.4625 -0.0500005 0.0010999
1.475 -0.0500005 0.0010999
1.4875 -0.0500005 0.0010999
1.5 -0.0500006 0.0010999
1.5125 -0.0500006 0.0010999
1.525 -0.0500006 0.0010999
1.5375 -0.0500006 0.0010999
1.55 -0.0500006 0.0010999
1.5625 -0.0500006 0.0010999
1.575 -0.0500006 0.0010999
1.5875 -0.0500006 0.0010999
1.6 -0.0500006 0.0010999
1.6125 -0.0500006 0.00109991
1.625 -0.0500006 0.00109991
1.6375 -0.0500006 0.00109991
1.65 -0.0500006 0.00109991
1.6625 -0.0500006 0.00109991
1.675 -0.0500006 0.00109991
1.6875 -0.0500006 0.00109991
1.7 -0.0500006 0.00109991
1.7125 -0.0500006 0.00109991
1.725 -0.0500006 0.00109991
1.7375 -0.0500006 0.00109991
1.75 -0.0500006 0.00109991
1.7625 -0.0500006 0.00109992
1.775 -0.0500006 0.00109992
1.7875 -0.0500006 0.00109992
1.8 -0.0500006 0.00109992
1.8125 -0.0500006 0.00109992
1.825 -0.0500006 0.00109992
1.8375 -0.0500006 0.00109992
1.85 -0.0500006 0.00109992
1.8625 -0.0500006 0.00109992
1.875 -0.0500006 0.00109992
1.8875 -0.0500006 0.00109992
1.9 -0.0500006 0.00109992
1.9125 -0.0500006 0.00109993
1.925 -0.0500006 0.00109993
1.9375 -0.0500006 0.00109993
1.95 -0.0500006 0.00109993
1.9625 -0.0500006 0.00109993
1.975 -0.0500006 0.00109993
1.9875 -0.0500006 0.00109993
2 -0.0500006 0.00109993
2.0125 -0.0500006 0.00109993
2.025 -0.0500006 0.00109993
2.0375 -0.0500006 0.00109993
2.05 -0.0500006 0.00109993
2.0625 -0.0500006 0.00109994
2.075 -0.0500006 0.00109994
2.0875 -0.0500006 0.00109994
2.1 -0.0500006 0.00109994
2.1125 -0.0500006 0.00109994
2.125 -0.0500006 0.00109994
2.1375 -0.0500006 0.00109994
2.15 -0.0500006 0.00109994
2.1625 -0.0500006 0.00109994
2.175 -0.0500007 0.00109994
2.1875 -0.0500007 0.00109994
2.2 -0.0500007 0.00109994
2.2125 -0.0500007 0.00109994
2.225 -0.0500007 0.00109995
2.2375 -0.0500007 0.00109995
2.25 -0.0500007 0.00109995
2.2625 -0.0500007 0.00109995
2.275 -0.0500007 0.00109995
2.2875 -0.0500007 0.00109995
2.3 -0.0500007 0.00109995
2.3125 -0.0500007 0.00109995
2.325 -0.0500007 0.00109995
2.3375 -0.0500007 0.00109995
2.35 -0.0500007 0.00109995
2.3625 -0.0500007 0.00109995
2.375 -0.0500007 0.00109995
2.3875 -0.0500007 0.00109996
2.4 -0.0500007 0.00109996
2.4125 -0.0500007 0.00109996
2.425 -0.0500007 0.00109996
2.4375 -0.0500007 0.00109996
2.45 -0.0500007 0.00109996
2.4625 -0.0500007 0.00109996
2.475 -0.0500007 0.00109996
2.4875 -0.0500007 0.00109996
2.5 -0.0500007 0.00109996
2.5125 -0.0500007 0.00109996
2.525 -0.0500007 0.00109996
2.5375 -0.0500007 0.00109996
2.55 -0.0500007 0.00109996
2.5625 -0.0500007 0.00109997
2.575 -0.0500007 0.00109997
2.5875 -0.0500007 0.00109997
2.6 -0.0500007 0.00109997
2.6125 -0.0500007 0.00109997
2.625 -0.0500007 0.00109997
2.6375 -0.0500007 0.00109997
2.65 -0.0500007 0.00109997
2.6625 -0.0500007 0.00109997
2.675 -0.0500007 0.00109997
2.6875 -0.0500007 0.00109997
2.7 -0.0500007 0.00109997
2.7125 -0.0500007 0.00109997
2.725 -0.0500007 0.00109997
2.7375 -0.0500007 0.00109997
2.75 -0.0500007 0.00109997
2.7625 -0.0500007 0.00109998
2.775 -0.0500007 0.00109998
2.7875 -0.0500007 0.00109998
2.8 -0.0500007 0.00109998
2.8125 -0.0500007 0.00109998
2.825 -0.0500007 0.00109998
2.8375 -0.0500007 0.00109998
2.85 -0.0500007 0.00109998
2.8625 -0.0500008 0.00109998
2.875 -0.0500008 0.00109998
2.8875 -0.0500008 0.00109998
2.9 -0.0500008 0.00109998
2.9125 -0.0500008 0.00109998
2.925 -0.0500008 0.00109998
2.9375 -0.0500008 0.00109998
2.95 -0.0500008 0.00109998
2.9625 -0.0500008 0.00109998
2.975 -0.0500008 0.00109998
2.9875 -0.0500008 0.00109998
3 -0.0500008 0.00109998
3.0125 -0.0500008 0.00109999
3.025 -0.0500008 0.00109999
3.0375 -0.0500008 0.00109999
3.05 -0.0500008 0.00109999
3.0625 -0.0500008 0.00109999
3.075 -0.0500008 0.00109999
3.0875 -0.0500008 0.00109999
3.1 -0.0500008 0.00109999
3.1125 -0.0500008 0.00109999
3.125 -0.0500008 0.00109999
3.1375 -0.0500008 0.00109999
3.15 -0.0500008 0.00109999
3.1625 -0.0500008 0.00109999
3.175 -0.0500008 0.00109999
3.1875 -0.0500008 0.00109999
3.2 -0.0500008 0.00109999
3.2125 -0.0500008 0.00109999
3.225 -0.0500008 0.00109999
3.2375 -0.0500008 0.00109999
3.25 -0.0500008 0.00109999
3.2625 -0.0500008 0.00109999
3.275 -0.0500008 0.00109999
3.2875 -0.0500008 0.00109999
3.3 -0.0500008 0.00109999
3.3125 -0.0500008 0.00109999
3.325 -0.0500008 0.00109999
3.3375 -0.0500008 0.00109999
3.35 -0.0500008 0.0011
3.3625 -0.0500008 0.0011
[...]
POINT_DATA 15780
 FIELD attributes 1
U 3 15780 float
30.0002 	-7.01784e-06 	-6.30588e-06 30.0002 	-6.84336e-06 	-6.51455e-06 30.0002 	-6.66887e-06 	-6.72321e-06 30.0002 	-6.49439e-06 	-6.93188e-06 30.0002 	-6.31991e-06 	-7.14055e-06 30.0002 	-6.14542e-06 	-7.34922e-06 30.0004 	-1.23851e-05 	-1.26098e-06 30.0004 	-1.23851e-05 	-1.26098e-06 30.0004 	-1.23851e-05 	-1.26098e-06 30.0004 	-1.23851e-05 	-1.26098e-06 30.0002 	-7.0517e-08 	-6.84367e-06 30.0005 	-1.0709e-05 	-1.68703e-06 30.0005 	-1.0709e-05 	-1.68703e-06 30.0005 	-1.0709e-05 	-1.68703e-06 30.0005 	-1.0709e-05 	-1.68702e-06 30.0002 	-7.22118e-08 	-6.59608e-06 30.0005 	-9.95849e-06 	-2.08021e-06 30.0005 	-9.95848e-06 	-2.08021e-06 30.0005 	-9.95847e-06 	-2.0802e-06 30.0005 	-9.95846e-06 	-2.0802e-06 30.0003 	-4.5931e-06 	-6.24726e-06 30.0005 	-9.69174e-06 	-2.34894e-06 30.0005 	-9.69173e-06 	-2.34894e-06 30.0005 	-9.69172e-06 	-2.34893e-06 30.0005 	-9.69172e-06 	-2.34893e-06 30.0003 	-7.58392e-08 	-6.57615e-06 30.0005 	-9.5236e-06 	-2.49781e-06 30.0005 	-9.52359e-06 	-2.4978e-06 30.0005 	-9.52359e-06 	-2.4978e-06 30.0005 	-9.52358e-06 	-2.4978e-06 30.0003 	-7.7614e-08 	-6.52627e-06 30.0005 	-9.38726e-06 	-2.55605e-06 30.0005 	-9.38725e-06 	-2.55605e-06 30.0005 	-9.38724e-06 	-2.55604e-06 30.0005 	-9.38723e-06 	-2.55604e-06 30.0003 	-4.26697e-06 	-6.08528e-06 30.0005 	-9.27985e-06 	-2.55828e-06 30.0005 	-9.27984e-06 	-2.55828e-06 30.0005 	-9.27983e-06 	-2.55828e-06 30.0005 	-9.27982e-06 	-2.55827e-06 30.0003 	-4.19938e-06 	-5.97789e-06 30.0006 	-9.1877e-06 	-2.53042e-06 30.0006 	-9.18769e-06 	-2.53041e-06 30.0006 	-9.18768e-06 	-2.53041e-06 30.0006 	-9.18768e-06 	-2.53041e-06 30.0003 	-8.29566e-08 	-6.20126e-06 30.0006 	-9.09765e-06 	-2.48117e-06 30.0006 	-9.09764e-06 	-2.48117e-06 30.0006 	-9.09763e-06 	-2.48116e-06 30.0006 	-9.09763e-06 	-2.48116e-06 30.0003 	-8.47158e-08 	-6.05423e-06 30.0006 	-9.0052e-06 	-2.4136e-06 30.0006 	-9.00519e-06 	-2.4136e-06 30.0006 	-9.00519e-06 	-2.41359e-06 30.0006 	-9.00518e-06 	-2.41359e-06 30.0003 	-8.64727e-08 	-5.88782e-06 30.0006 	-8.90907e-06 	-2.32972e-06 30.0006 	-8.90906e-06 	-2.32971e-06 30.0006 	-8.90905e-06 	-2.32971e-06 30.0006 	-8.90904e-06 	-2.32971e-06 30.0003 	-3.93801e-06 	-5.36347e-06 30.0006 	-8.80903e-06 	-2.23273e-06 30.0006 	-8.80902e-06 	-2.23273e-06 30.0006 	-8.80901e-06 	-2.23273e-06 30.0006 	-8.80901e-06 	-2.23273e-06 30.0003 	-3.86422e-06 	-5.16475e-06 30.0006 	-8.70478e-06 	-2.12412e-06 30.0006 	-8.70477e-06 	-2.12412e-06 30.0006 	-8.70476e-06 	-2.12412e-06 30.0006 	-8.70476e-06 	-2.12412e-06 30.0003 	-9.17495e-08 	-5.28457e-06 30.0006 	-8.59658e-06 	-2.00507e-06 30.0006 	-8.59657e-06 	-2.00507e-06 30.0006 	-8.59657e-06 	-2.00506e-06 30.0006 	-8.59656e-06 	-2.00506e-06 30.0003 	-3.70462e-06 	-4.71939e-06 30.0007 	-8.48521e-06 	-1.87667e-06 30.0007 	-8.4852e-06 	-1.87667e-06 30.0007 	-8.4852e-06 	-1.87667e-06 30.0007 	-8.48519e-06 	-1.87667e-06 30.0003 	-3.61951e-06 	-4.4743e-06 30.0007 	-8.37187e-06 	-1.73882e-06 30.0007 	-8.37186e-06 	-1.73882e-06 30.0007 	-8.37185e-06 	-1.73882e-06 30.0007 	-8.37185e-06 	-1.73882e-06 30.0004 	-9.69618e-08 	-4.54318e-06 30.0007 	-8.26026e-06 	-1.59802e-06 30.0007 	-8.26026e-06 	-1.59802e-06 30.0007 	-8.26025e-06 	-1.59802e-06 30.0007 	-8.26025e-06 	-1.59802e-06 30.0004 	-9.86824e-08 	-4.27123e-06 30.0007 	-8.14825e-06 	-1.46322e-06 30.0007 	-8.14824e-06 	-1.46322e-06 30.0007 	-8.14824e-06 	-1.46322e-06 30.0007 	-8.14823e-06 	-1.46322e-06 30.0004 	-1.004e-07 	-3.98925e-06 30.0007 	-8.02015e-06 	-1.32071e-06 30.0007 	-8.02015e-06 	-1.32071e-06 30.0007 	-8.02014e-06 	-1.32071e-06 30.0007 	-8.02014e-06 	-1.32071e-06 30.0004 	-3.25109e-06 	-3.37794e-06 30.0007 	-7.88134e-06 	-1.16799e-06 30.0007 	-7.88134e-06 	-1.16799e-06 30.0007 	-7.88133e-06 	-1.16799e-06 30.0007 	-7.88133e-06 	-1.16799e-06 30.0004 	-1.038e-07 	-3.40286e-06 30.0007 	-7.7454e-06 	-1.00786e-06 30.0007 	-7.74539e-06 	-1.00786e-06 30.0007 	-7.74539e-06 	-1.00786e-06 30.0007 	-7.74539e-06 	-1.00786e-06 30.0004 	-1.05495e-07 	-3.10325e-06 30.0007 	-7.61125e-06 	-8.41844e-07 30.0007 	-7.61124e-06 	-8.41844e-07 30.0007 	-7.61124e-06 	-8.41844e-07 30.0007 	-7.61124e-06 	-8.41844e-07 30.0004 	-2.93188e-06 	-2.48787e-06 30.0007 	-7.47546e-06 	-6.7019e-07 30.0007 	-7.47546e-06 	-6.7019e-07 30.0007 	-7.47546e-06 	-6.7019e-07 30.0007 	-7.47545e-06 	-6.7019e-07 30.0004 	-2.82539e-06 	-2.18311e-06 30.0007 	-7.34329e-06 	-4.97034e-07 30.0007 	-7.34329e-06 	-4.97034e-07 30.0007 	-7.34329e-06 	-4.97034e-07 30.0007 	-7.34329e-06 	-4.97033e-07 30.0004 	-1.1054e-07 	-2.17108e-06 30.0007 	-7.21547e-06 	-3.17306e-07 30.0007 	-7.21547e-06 	-3.17306e-07 30.0007 	-7.21547e-06 	-3.17306e-07 30.0007 	-7.21547e-06 	-3.17306e-07 30.0004 	-1.12201e-07 	-1.85334e-06 30.0007 	-7.09871e-06 	-1.382e-07 30.0007 	-7.09871e-06 	-1.382e-07 30.0007 	-7.09871e-06 	-1.382e-07 30.0007 	-7.09871e-06 	-1.382e-07 30.0004 	-1.13849e-07 	-1.549e-06 30.0007 	-6.98537e-06 	4.08649e-08 30.0007 	-6.98537e-06 	4.08649e-08 30.0007 	-6.98537e-06 	4.08649e-08 30.0007 	-6.98537e-06 	4.08649e-08 30.0004 	-2.43889e-06 	-9.58493e-07 30.0007 	-6.87176e-06 	2.14684e-07 30.0007 	-6.87176e-06 	2.14684e-07 30.0007 	-6.87176e-06 	2.14684e-07 30.0007 	-6.87176e-06 	2.14684e-07 30.0004 	-2.34727e-06 	-6.82291e-07 30.0007 	-6.75355e-06 	3.90735e-07 30.0007 	-6.75355e-06 	3.90735e-07 30.0007 	-6.75355e-06 	3.90735e-07 30.0007 	-6.75355e-06 	3.90735e-07 30.0004 	-1.18765e-07 	-7.09748e-07 30.0007 	-6.643e-06 	5.64384e-07 30.0007 	-6.643e-06 	5.64384e-07 30.0007 	-6.64301e-06 	5.64385e-07 30.0007 	-6.64301e-06 	5.64385e-07 30.0004 	-2.16689e-06 	-1.45431e-07 30.0007 	-6.53601e-06 	7.2741e-07 30.0007 	-6.53601e-06 	7.27411e-07 30.0007 	-6.53602e-06 	7.27411e-07 30.0007 	-6.53602e-06 	7.27411e-07 30.0004 	-2.08121e-06 	1.13848e-07 30.0007 	-6.4307e-06 	8.78854e-07 30.0007 	-6.4307e-06 	8.78855e-07 30.0007 	-6.4307e-06 	8.78855e-07 30.0007 	-6.43071e-06 	8.78855e-07 30.0004 	-1.23649e-07 	7.06049e-08 30.0007 	-6.32309e-06 	1.0178e-06 30.0007 	-6.32309e-06 	1.0178e-06 30.0007 	-6.32309e-06 	1.0178e-06 30.0007 	-6.3231e-06 	1.0178e-06 30.0004 	-1.25232e-07 	3.15835e-07 30.0007 	-6.21671e-06 	1.14063e-06 30.0007 	-6.21671e-06 	1.14063e-06 30.0007 	-6.21672e-06 	1.14063e-06 30.0007 	-6.21672e-06 	1.14063e-06 30.0004 	-1.26814e-07 	5.45552e-07 30.0007 	-6.11544e-06 	1.25633e-06 30.0007 	-6.11544e-06 	1.25633e-06 30.0007 	-6.11545e-06 	1.25633e-06 30.0007 	-6.11545e-06 	1.25633e-06 30.0004 	-1.76438e-06 	1.03209e-06 30.0007 	-6.02271e-06 	1.37129e-06 30.0007 	-6.02271e-06 	1.37129e-06 30.0007 	-6.02272e-06 	1.37129e-06 30.0007 	-6.02272e-06 	1.37129e-06 30.0004 	-1.29911e-07 	9.3697e-07 30.0007 	-5.94305e-06 	1.48852e-06 30.0007 	-5.94306e-06 	1.48852e-06 30.0007 	-5.94306e-06 	1.48852e-06 30.0007 	-5.94306e-06 	1.48852e-06 30.0004 	-1.31411e-07 	1.10459e-06 30.0007 	-5.87184e-06 	1.59291e-06 30.0007 	-5.87184e-06 	1.59291e-06 30.0007 	-5.87185e-06 	1.59291e-06 30.0007 	-5.87185e-06 	1.59291e-06 30.0004 	-1.5915e-06 	1.53879e-06 30.0007 	-5.80224e-06 	1.67933e-06 30.0007 	-5.80224e-06 	1.67933e-06 30.0007 	-5.80224e-06 	1.67934e-06 30.0007 	-5.80225e-06 	1.67934e-06 30.0003 	-1.54429e-06 	1.67824e-06 30.0007 	-5.73414e-06 	1.75013e-06 30.0007 	-5.73414e-06 	1.75013e-06 30.0007 	-5.73415e-06 	1.75013e-06 30.0007 	-5.73415e-06 	1.75013e-06 30.0003 	-1.36122e-07 	1.52476e-06 30.0006 	-5.669e-06 	1.80983e-06 30.0006 	-5.66901e-06 	1.80983e-06 30.0006 	-5.66901e-06 	1.80983e-06 30.0006 	-5.66901e-06 	1.80983e-06 30.0003 	-1.37681e-07 	1.63231e-06 30.0006 	-5.60893e-06 	1.85996e-06 30.0006 	-5.60894e-06 	1.85996e-06 30.0006 	-5.60894e-06 	1.85996e-06 30.0006 	-5.60894e-06 	1.85997e-06 30.0003 	-1.39156e-07 	1.72403e-06 30.0006 	-5.55465e-06 	1.90045e-06 30.0006 	-5.55465e-06 	1.90045e-06 30.0006 	-5.55466e-06 	1.90045e-06 30.0006 	-5.55466e-06 	1.90046e-06 30.0003 	-1.38899e-06 	2.07106e-06 30.0006 	-5.50583e-06 	1.93112e-06 30.0006 	-5.50583e-06 	1.93112e-06 30.0006 	-5.50584e-06 	1.93112e-06 30.0006 	-5.50584e-06 	1.93112e-06 30.0003 	-1.36196e-06 	2.131e-06 30.0006 	-5.46209e-06 	1.95186e-06 30.0006 	-5.46209e-06 	1.95186e-06 30.0006 	-5.46209e-06 	1.95186e-06 30.0006 	-5.4621e-06 	1.95186e-06 30.0003 	-1.43209e-07 	1.9083e-06 30.0006 	-5.42329e-06 	1.9628e-06 30.0006 	-5.4233e-06 	1.9628e-06 30.0006 	-5.4233e-06 	1.96281e-06 30.0006 	-5.42331e-06 	1.96281e-06 30.0003 	-1.32358e-06 	2.20769e-06 30.0006 	-5.38935e-06 	1.96434e-06 30.0006 	-5.38935e-06 	1.96434e-06 30.0006 	-5.38936e-06 	1.96434e-06 30.0006 	-5.38936e-06 	1.96434e-06 30.0003 	-1.31181e-06 	2.22558e-06 30.0006 	-5.36019e-06 	1.95694e-06 30.0006 	-5.36019e-06 	1.95694e-06 30.0006 	-5.3602e-06 	1.95694e-06 30.0006 	-5.3602e-06 	1.95695e-06 30.0003 	-1.47113e-07 	1.96621e-06 30.0005 	-5.33572e-06 	1.94115e-06 30.0005 	-5.33573e-06 	1.94115e-06 30.0005 	-5.33573e-06 	1.94115e-06 30.0005 	-5.33573e-06 	1.94115e-06 30.0003 	-1.48377e-07 	1.96061e-06 30.0005 	-5.31574e-06 	1.91795e-06 30.0005 	-5.31574e-06 	1.91796e-06 30.0005 	-5.31574e-06 	1.91796e-06 30.0005 	-5.31575e-06 	1.91796e-06 30.0003 	-1.49596e-07 	1.94428e-06 30.0005 	-5.30015e-06 	1.88802e-06 30.0005 	-5.30015e-06 	1.88803e-06 30.0005 	-5.30016e-06 	1.88803e-06 30.0005 	-5.30016e-06 	1.88803e-06 30.0003 	-1.30927e-06 	2.17904e-06 30.0005 	-5.28882e-06 	1.85193e-06 30.0005 	-5.28883e-06 	1.85193e-06 30.0005 	-5.28883e-06 	1.85193e-06 30.0005 	-5.28883e-06 	1.85193e-06 30.0003 	-1.51955e-07 	1.88234e-06 30.0005 	-5.28156e-06 	1.81011e-06 30.0005 	-5.28157e-06 	1.81011e-06 30.0005 	-5.28157e-06 	1.81011e-06 30.0005 	-5.28157e-06 	1.81011e-06 30.0003 	-1.5308e-07 	1.83822e-06 30.0005 	-5.27813e-06 	1.76319e-06 30.0005 	-5.27813e-06 	1.76319e-06 30.0005 	-5.27814e-06 	1.76319e-06 30.0005 	-5.27814e-06 	1.76319e-06 30.0003 	-1.34851e-06 	2.04412e-06 30.0005 	-5.27832e-06 	1.71166e-06 30.0005 	-5.27832e-06 	1.71166e-06 30.0005 	-5.27833e-06 	1.71166e-06 30.0005 	-5.27833e-06 	1.71166e-06 30.0003 	-1.36858e-06 	1.98429e-06 30.0005 	-5.28188e-06 	1.65603e-06 30.0005 	-5.28188e-06 	1.65603e-06 30.0005 	-5.28188e-06 	1.65603e-06 30.0005 	-5.28189e-06 	1.65603e-06 30.0002 	-1.56311e-07 	1.66286e-06 30.0005 	-5.28868e-06 	1.59671e-06 30.0005 	-5.28868e-06 	1.59672e-06 30.0005 	-5.28869e-06 	1.59672e-06 30.0005 	-5.28869e-06 	1.59672e-06 30.0002 	-1.57368e-07 	1.59261e-06 30.0004 	-5.29864e-06 	1.53419e-06 30.0004 	-5.29864e-06 	1.53419e-06 30.0004 	-5.29864e-06 	1.53419e-06 30.0004 	-5.29864e-06 	1.53419e-06 30.0002 	-1.58448e-07 	1.51775e-06 30.0004 	-5.31159e-06 	1.46893e-06 30.0004 	-5.3116e-06 	1.46893e-06 30.0004 	-5.3116e-06 	1.46893e-06 30.0004 	-5.3116e-06 	1.46893e-06 30.0002 	-1.48026e-06 	1.69067e-06 30.0004 	-5.32716e-06 	1.40148e-06 30.0004 	-5.32716e-06 	1.40148e-06 30.0004 	-5.32716e-06 	1.40148e-06 30.0004 	-5.32717e-06 	1.40148e-06 30.0002 	-1.51479e-06 	1.60718e-06 30.0004 	-5.34504e-06 	1.33223e-06 30.0004 	-5.34505e-06 	1.33223e-06 30.0004 	-5.34505e-06 	1.33223e-06 30.0004 	-5.34505e-06 	1.33223e-06 30.0002 	-1.61709e-07 	1.27192e-06 30.0004 	-5.36505e-06 	1.26152e-06 30.0004 	-5.36506e-06 	1.26152e-06 30.0004 	-5.36506e-06 	1.26152e-06 30.0004 	-5.36506e-06 	1.26152e-06 30.0002 	-1.59012e-06 	1.43255e-06 30.0004 	-5.38689e-06 	1.18984e-06 30.0004 	-5.38689e-06 	1.18985e-06 30.0004 	-5.3869e-06 	1.18985e-06 30.0004 	-5.3869e-06 	1.18985e-06 30.0002 	-1.63061e-06 	1.34247e-06 30.0004 	-5.41053e-06 	1.11752e-06 30.0004 	-5.41054e-06 	1.11752e-06 30.0004 	-5.41054e-06 	1.11752e-06 30.0004 	-5.41054e-06 	1.11752e-06 30.0002 	-1.64735e-07 	1.00614e-06 30.0004 	-5.43564e-06 	1.04484e-06 30.0004 	-5.43564e-06 	1.04484e-06 30.0004 	-5.43564e-06 	1.04484e-06 30.0004 	-5.43564e-06 	1.04484e-06 30.0002 	-1.65677e-07 	9.1567e-07 30.0004 	-5.46131e-06 	9.72303e-07 30.0004 	-5.46131e-06 	9.72303e-07 30.0004 	-5.46131e-06 	9.72304e-07 30.0004 	-5.46132e-06 	9.72304e-07 30.0002 	-1.66585e-07 	8.25048e-07 30.0004 	-5.48738e-06 	8.99522e-07 30.0004 	-5.48738e-06 	8.99523e-07 30.0004 	-5.48738e-06 	8.99523e-07 30.0004 	-5.48738e-06 	8.99523e-07 30.0002 	-1.80752e-06 	9.75471e-07 30.0004 	-5.51419e-06 	8.2599e-07 30.0004 	-5.51419e-06 	8.25991e-07 30.0004 	-5.51419e-06 	8.25991e-07 30.0004 	-5.51419e-06 	8.25991e-07 30.0002 	-1.68301e-07 	6.43682e-07 30.0003 	-5.54394e-06 	7.5203e-07 30.0003 	-5.54394e-06 	7.52031e-07 30.0003 	-5.54395e-06 	7.52031e-07 30.0003 	-5.54395e-06 	7.52031e-07 30.0002 	-1.69122e-07 	5.52687e-07 30.0003 	-5.57843e-06 	6.77486e-07 30.0003 	-5.57843e-06 	6.77486e-07 30.0003 	-5.57844e-06 	6.77486e-07 30.0003 	-5.57844e-06 	6.77486e-07 30.0002 	-1.95591e-06 	7.01363e-07 30.0003 	-5.61531e-06 	6.04421e-07 30.0003 	-5.61531e-06 	6.04421e-07 30.0003 	-5.61531e-06 	6.04422e-07 30.0003 	-5.61531e-06 	6.04422e-07 30.0002 	-2.00809e-06 	6.11733e-07 30.0003 	-5.65136e-06 	5.34701e-07 30.0003 	-5.65136e-06 	5.34702e-07 30.0003 	-5.65136e-06 	5.34702e-07 30.0003 	-5.65137e-06 	5.34702e-07 30.0002 	-1.71613e-07 	2.80992e-07 30.0003 	-5.68247e-06 	4.67677e-07 30.0003 	-5.68247e-06 	4.67677e-07 30.0003 	-5.68247e-06 	4.67677e-07 30.0003 	-5.68247e-06 	4.67677e-07 30.0002 	-1.7244e-07 	1.97377e-07 30.0003 	-5.71089e-06 	4.03232e-07 30.0003 	-5.7109e-06 	4.03232e-07 30.0003 	-5.7109e-06 	4.03232e-07 30.0003 	-5.7109e-06 	4.03232e-07 30.0002 	-1.73239e-07 	1.16445e-07 30.0003 	-5.73907e-06 	3.39268e-07 30.0003 	-5.73907e-06 	3.39268e-07 30.0003 	-5.73907e-06 	3.39268e-07 30.0003 	-5.73907e-06 	3.39268e-07 30.0002 	-2.20135e-06 	2.7413e-07 30.0003 	-5.76706e-06 	2.75307e-07 30.0003 	-5.76706e-06 	2.75307e-07 30.0003 	-5.76706e-06 	2.75307e-07 30.0003 	-5.76706e-06 	2.75307e-07 30.0002 	-2.24828e-06 	1.96387e-07 30.0003 	-5.79376e-06 	2.10816e-07 30.0003 	-5.79376e-06 	2.10816e-07 30.0003 	-5.79376e-06 	2.10816e-07 30.0003 	-5.79376e-06 	2.10816e-07 30.0002 	-1.75393e-07 	-1.09105e-07 30.0003 	-5.82174e-06 	1.48801e-07 30.0003 	-5.82174e-06 	1.48801e-07 30.0003 	-5.82174e-06 	1.48801e-07 30.0003 	-5.82174e-06 	1.48801e-07 30.0002 	-2.34203e-06 	4.46975e-08 30.0003 	-5.851e-06 	9.00054e-08 30.0003 	-5.851e-06 	9.00054e-08 30.0003 	-5.851e-06 	9.00054e-08 30.0003 	-5.851e-06 	9.00054e-08 30.0002 	-2.38934e-06 	-2.9075e-08 30.0003 	-5.88143e-06 	3.48373e-08 30.0003 	-5.88143e-06 	3.48373e-08 30.0003 	-5.88143e-06 	3.48373e-08 30.0003 	-5.88143e-06 	3.48373e-08 30.0002 	-1.7738e-07 	-3.30734e-07 30.0003 	-5.91311e-06 	-1.70522e-08 30.0003 	-5.91311e-06 	-1.70522e-08 30.0003 	-5.91311e-06 	-1.70522e-08 30.0003 	-5.91311e-06 	-1.70522e-08 30.0002 	-1.77995e-07 	-4.01773e-07 30.0003 	-5.94624e-06 	-6.90333e-08 30.0003 	-5.94624e-06 	-6.90333e-08 30.0003 	-5.94624e-06 	-6.90333e-08 30.0003 	-5.94624e-06 	-6.90333e-08 30.0002 	-1.78601e-07 	-4.67047e-07 30.0003 	-5.97821e-06 	-1.23296e-07 30.0003 	-5.97821e-06 	-1.23296e-07 30.0003 	-5.97821e-06 	-1.23296e-07 30.0003 	-5.97821e-06 	-1.23296e-07 30.0002 	-2.58085e-06 	-3.01355e-07 30.0003 	-6.006e-06 	-1.77939e-07 30.0003 	-6.00599e-06 	-1.77939e-07 30.0003 	-6.00599e-06 	-1.77939e-07 30.0003 	-6.00599e-06 	-1.77939e-07 30.0002 	-1.79791e-07 	-5.84861e-07 30.0003 	-6.03013e-06 	-2.29198e-07 30.0003 	-6.03013e-06 	-2.29198e-07 30.0003 	-6.03012e-06 	-2.29198e-07 30.0003 	-6.03012e-06 	-2.29198e-07 30.0002 	-1.80378e-07 	-6.42125e-07 30.0003 	-6.05337e-06 	-2.76161e-07 30.0003 	-6.05337e-06 	-2.76161e-07 30.0003 	-6.05337e-06 	-2.76161e-07 30.0003 	-6.05336e-06 	-2.76161e-07 30.0002 	-2.70892e-06 	-4.78958e-07 30.0003 	-6.07723e-06 	-3.19639e-07 30.0003 	-6.07723e-06 	-3.19639e-07 30.0003 	-6.07723e-06 	-3.19639e-07 30.0003 	-6.07723e-06 	-3.19639e-07 30.0002 	-2.74995e-06 	-5.34002e-07 30.0003 	-6.10142e-06 	-3.61175e-07 30.0003 	-6.10142e-06 	-3.61175e-07 30.0003 	-6.10142e-06 	-3.61175e-07 30.0003 	-6.10142e-06 	-3.61175e-07 30.0002 	-1.82114e-07 	-8.03765e-07 30.0003 	-6.12546e-06 	-4.01372e-07 30.0003 	-6.12546e-06 	-4.01372e-07 30.0003 	-6.12546e-06 	-4.01372e-07 30.0003 	-6.12546e-06 	-4.01372e-07 30.0001 	-1.82663e-07 	-8.53085e-07 30.0003 	-6.14886e-06 	-4.40366e-07 30.0003 	-6.14886e-06 	-4.40366e-07 30.0003 	-6.14886e-06 	-4.40366e-07 30.0003 	-6.14886e-06 	-4.40366e-07 30.0001 	-1.83202e-07 	-9.00295e-07 30.0003 	-6.17152e-06 	-4.77985e-07 30.0003 	-6.17152e-06 	-4.77985e-07 30.0003 	-6.17152e-06 	-4.77985e-07 30.0003 	-6.17152e-06 	-4.77985e-07 30.0001 	-2.90944e-06 	-7.31433e-07 30.0003 	-6.19333e-06 	-5.14198e-07 30.0003 	-6.19333e-06 	-5.14198e-07 30.0003 	-6.19333e-06 	-5.14198e-07 30.0003 	-6.19333e-06 	-5.14198e-07 30.0001 	-2.94732e-06 	-7.7556e-07 30.0003 	-6.21422e-06 	-5.48823e-07 30.0003 	-6.21422e-06 	-5.48823e-07 30.0003 	-6.21422e-06 	-5.48823e-07 30.0003 	-6.21421e-06 	-5.48822e-07 30.0001 	-1.8472e-07 	-1.02951e-06 30.0003 	-6.2343e-06 	-5.82042e-07 30.0003 	-6.2343e-06 	-5.82042e-07 30.0003 	-6.2343e-06 	-5.82041e-07 30.0003 	-6.2343e-06 	-5.82041e-07 30.0001 	-3.0203e-06 	-8.57451e-07 30.0003 	-6.25358e-06 	-6.13882e-07 30.0003 	-6.25358e-06 	-6.13881e-07 30.0003 	-6.25358e-06 	-6.13881e-07 30.0003 	-6.25358e-06 	-6.13881e-07 30.0001 	-3.0554e-06 	-8.95457e-07 30.0003 	-6.27208e-06 	-6.44404e-07 30.0003 	-6.27208e-06 	-6.44404e-07 30.0003 	-6.27208e-06 	-6.44404e-07 30.0003 	-6.27208e-06 	-6.44404e-07 30.0001 	-1.86145e-07 	-1.14083e-06 30.0003 	-6.28977e-06 	-6.73605e-07 30.0003 	-6.28977e-06 	-6.73605e-07 30.0003 	-6.28977e-06 	-6.73605e-07 30.0003 	-6.28977e-06 	-6.73604e-07 30.0001 	-1.86592e-07 	-1.17458e-06 30.0003 	-6.3068e-06 	-7.01422e-07 30.0003 	-6.3068e-06 	-7.01422e-07 30.0003 	-6.30679e-06 	-7.01422e-07 30.0003 	-6.30679e-06 	-7.01422e-07 30.0001 	-1.87045e-07 	-1.20667e-06 30.0003 	-6.3229e-06 	-7.27852e-07 30.0003 	-6.32289e-06 	-7.27852e-07 30.0003 	-6.32289e-06 	-7.27852e-07 30.0003 	-6.32289e-06 	-7.27852e-07 30.0001 	-3.18685e-06 	-1.03098e-06 30.0003 	-6.33817e-06 	-7.52963e-07 30.0003 	-6.33817e-06 	-7.52963e-07 30.0003 	-6.33817e-06 	-7.52963e-07 30.0003 	-6.33817e-06 	-7.52963e-07 30.0001 	-1.87918e-07 	-1.26595e-06 30.0003 	-6.35269e-06 	-7.76931e-07 30.0003 	-6.35269e-06 	-7.76931e-07 30.0003 	-6.35269e-06 	-7.76931e-07 30.0003 	-6.35269e-06 	-7.7693e-07 30.0001 	-1.88328e-07 	-1.29331e-06 30.0003 	-6.36651e-06 	-7.99801e-07 30.0003 	-6.3665e-06 	-7.99801e-07 30.0003 	-6.3665e-06 	-7.99801e-07 30.0003 	-6.3665e-06 	-7.998e-07 30.0001 	-3.27626e-06 	-1.11603e-06 30.0003 	-6.3796e-06 	-8.21528e-07 30.0003 	-6.37959e-06 	-8.21527e-07 30.0003 	-6.37959e-06 	-8.21527e-07 30.0003 	-6.37959e-06 	-8.21527e-07 30.0001 	-3.30436e-06 	-1.1415e-06 30.0003 	-6.39187e-06 	-8.41965e-07 30.0003 	-6.39187e-06 	-8.41965e-07 30.0003 	-6.39187e-06 	-8.41964e-07 30.0003 	-6.39187e-06 	-8.41964e-07 30.0001 	-1.89526e-07 	-1.36685e-06 30.0003 	-6.4035e-06 	-8.61356e-07 30.0003 	-6.4035e-06 	-8.61355e-07 30.0003 	-6.4035e-06 	-8.61355e-07 30.0003 	-6.4035e-06 	-8.61355e-07 30.0001 	-1.89911e-07 	-1.38873e-06 30.0003 	-6.41445e-06 	-8.79792e-07 30.0003 	-6.41445e-06 	-8.79792e-07 30.0003 	-6.41444e-06 	-8.79792e-07 30.0003 	-6.41444e-06 	-8.79792e-07 30.0001 	-1.90291e-07 	-1.40938e-06 30.0003 	-6.4247e-06 	-8.97276e-07 30.0003 	-6.4247e-06 	-8.97275e-07 30.0003 	-6.42469e-06 	-8.97275e-07 30.0003 	-6.42469e-06 	-8.97275e-07 30.0001 	-3.40868e-06 	-1.2305e-06 30.0003 	-6.43428e-06 	-9.13859e-07 30.0003 	-6.43428e-06 	-9.13859e-07 30.0003 	-6.43428e-06 	-9.13859e-07 30.0003 	-6.43427e-06 	-9.13858e-07 30.0001 	-3.43281e-06 	-1.24983e-06 30.0003 	-6.44315e-06 	-9.29547e-07 30.0003 	-6.44315e-06 	-9.29547e-07 30.0003 	-6.44315e-06 	-9.29546e-07 30.0003 	-6.44314e-06 	-9.29546e-07 30.0001 	-1.91369e-07 	-1.46455e-06 30.0003 	-6.45141e-06 	-9.44402e-07 30.0003 	-6.45141e-06 	-9.44401e-07 30.0003 	-6.45141e-06 	-9.44401e-07 30.0003 	-6.4514e-06 	-9.44401e-07 30.0001 	-3.47887e-06 	-1.28532e-06 30.0003 	-6.45909e-06 	-9.58406e-07 30.0003 	-6.45909e-06 	-9.58406e-07 30.0003 	-6.45909e-06 	-9.58405e-07 30.0003 	-6.45908e-06 	-9.58405e-07 30.0001 	-3.50092e-06 	-1.30159e-06 30.0003 	-6.46618e-06 	-9.71696e-07 30.0003 	-6.46617e-06 	-9.71696e-07 30.0003 	-6.46617e-06 	-9.71696e-07 30.0003 	-6.46617e-06 	-9.