# vtk DataFile Version 2.0
track0
ASCII
DATASET POLYDATA
POINTS 15780 float
-1.001 -0.05 0.0011
-1.0008 -0.05 0.0011
-1.0006 -0.05 0.0011
-1.0004 -0.05 0.0011
-1.0002 -0.05 0.0011
-1 -0.05 0.0011
-0.9875 -0.05 0.0011
-0.975 -0.05 0.0011
-0.9625 -0.05 0.0011
-0.95 -0.05 0.0011
-0.9375 -0.05 0.00109999
-0.925 -0.05 0.00109999
-0.9125 -0.05 0.00109999
-0.9 -0.05 0.00109999
-0.8875 -0.05 0.00109999
-0.875 -0.05 0.00109999
-0.8625 -0.05 0.00109999
-0.85 -0.05 0.00109999
-0.8375 -0.05 0.00109998
-0.825 -0.0500001 0.00109998
-0.8125 -0.0500001 0.00109998
-0.8 -0.0500001 0.00109998
-0.7875 -0.0500001 0.00109998
-0.775 -0.0500001 0.00109998
-0.7625 -0.0500001 0.00109998
-0.75 -0.0500001 0.00109998
-0.7375 -0.0500001 0.00109997
-0.725 -0.0500001 0.00109997
-0.7125 -0.0500001 0.00109997
-0.7 -0.0500001 0.00109997
-0.6875 -0.0500001 0.00109997
-0.675 -0.0500001 0.00109997
-0.6625 -0.0500001 0.00109997
-0.65 -0.0500001 0.00109996
-0.6375 -0.0500001 0.00109996
-0.625 -0.0500001 0.00109996
-0.6125 -0.0500001 0.00109996
-0.6 -0.0500001 0.00109996
-0.5875 -0.0500001 0.00109996
-0.575 -0.0500001 0.00109996
-0.5625 -0.0500001 0.00109996
-0.55 -0.0500001 0.00109995
-0.5375 -0.0500001 0.00109995
-0.525 -0.0500001 0.00109995
-0.5125 -0.0500001 0.00109995
-0.5 -0.0500001 0.00109995
-0.4875 -0.0500001 0.00109995
-0.475 -0.0500001 0.00109995
-0.4625 -0.0500001 0.00109994
-0.45 -0.0500002 0.00109994
-0.4375 -0.0500002 0.00109994
-0.425 -0.0500002 0.00109994
-0.4125 -0.0500002 0.00109994
-0.4 -0.0500002 0.00109994
-0.3875 -0.0500002 0.00109994
-0.375 -0.0500002 0.00109994
-0.3625 -0.0500002 0.00109993
-0.35 -0.0500002 0.00109993
-0.3375 -0.0500002 0.00109993
-0.325 -0.0500002 0.00109993
-0.3125 -0.0500002 0.00109993
-0.3 -0.0500002 0.00109993
-0.2875 -0.0500002 0.00109993
-0.275 -0.0500002 0.00109993
-0.2625 -0.0500002 0.00109992
-0.25 -0.0500002 0.00109992
-0.2375 -0.0500002 0.00109992
-0.225 -0.0500002 0.00109992
-0.2125 -0.0500002 0.00109992
-0.2 -0.0500002 0.00109992
-0.1875 -0.0500002 0.00109992
-0.175 -0.0500002 0.00109992
-0.1625 -0.0500002 0.00109991
-0.15 -0.0500002 0.00109991
-0.1375 -0.0500002 0.00109991
-0.125 -0.0500002 0.00109991
-0.1125 -0.0500002 0.00109991
-0.1 -0.0500002 0.00109991
-0.0875 -0.0500002 0.00109991
-0.075 -0.0500002 0.00109991
-0.0625 -0.0500002 0.00109991
-0.05 -0.0500003 0.00109991
-0.0375 -0.0500003 0.0010999
-0.025 -0.0500003 0.0010999
-0.0125 -0.0500003 0.0010999
2.10607e-13 -0.0500003 0.0010999
0.0125 -0.0500003 0.0010999
0.025 -0.0500003 0.0010999
0.0375 -0.0500003 0.0010999
0.05 -0.0500003 0.0010999
0.0625 -0.0500003 0.0010999
0.075 -0.0500003 0.0010999
0.0875 -0.0500003 0.0010999
0.1 -0.0500003 0.00109989
0.1125 -0.0500003 0.00109989
0.125 -0.0500003 0.00109989
0.1375 -0.0500003 0.00109989
0.15 -0.0500003 0.00109989
0.1625 -0.0500003 0.00109989
0.175 -0.0500003 0.00109989
0.1875 -0.0500003 0.00109989
0.2 -0.0500003 0.00109989
0.2125 -0.0500003 0.00109989
0.225 -0.0500003 0.00109989
0.2375 -0.0500003 0.00109989
0.25 -0.0500003 0.00109989
0.2625 -0.0500003 0.00109988
0.275 -0.0500003 0.00109988
0.2875 -0.0500003 0.00109988
0.3 -0.0500003 0.00109988
0.3125 -0.0500003 0.00109988
0.325 -0.0500003 0.00109988
0.3375 -0.0500003 0.00109988
0.35 -0.0500003 0.00109988
0.3625 -0.0500003 0.00109988
0.375 -0.0500003 0.00109988
0.3875 -0.0500003 0.00109988
0.4 -0.0500004 0.00109988
0.4125 -0.0500004 0.00109988
0.425 -0.0500004 0.00109988
0.4375 -0.0500004 0.00109988
0.45 -0.0500004 0.00109988
0.4625 -0.0500004 0.00109988
0.475 -0.0500004 0.00109988
0.4875 -0.0500004 0.00109988
0.5 -0.0500004 0.00109988
0.5125 -0.0500004 0.00109988
0.525 -0.0500004 0.00109988
0.5375 -0.0500004 0.00109988
0.55 -0.0500004 0.00109988
0.5625 -0.0500004 0.00109988
0.575 -0.0500004 0.00109987
0.5875 -0.0500004 0.00109987
0.6 -0.0500004 0.00109987
0.6125 -0.0500004 0.00109987
0.625 -0.0500004 0.00109987
0.6375 -0.0500004 0.00109987
0.65 -0.0500004 0.00109987
0.6625 -0.0500004 0.00109987
0.675 -0.0500004 0.00109987
0.6875 -0.0500004 0.00109987
0.7 -0.0500004 0.00109987
0.7125 -0.0500004 0.00109987
0.725 -0.0500004 0.00109987
0.7375 -0.0500004 0.00109987
0.75 -0.0500004 0.00109987
0.7625 -0.0500004 0.00109987
0.775 -0.0500004 0.00109987
0.7875 -0.0500004 0.00109987
0.8 -0.0500004 0.00109987
0.8125 -0.0500004 0.00109987
0.825 -0.0500004 0.00109987
0.8375 -0.0500004 0.00109987
0.85 -0.0500004 0.00109987
0.8625 -0.0500004 0.00109987
0.875 -0.0500004 0.00109987
0.8875 -0.0500004 0.00109987
0.9 -0.0500004 0.00109987
0.9125 -0.0500005 0.00109988
0.925 -0.0500005 0.00109988
0.9375 -0.0500005 0.00109988
0.95 -0.0500005 0.00109988
0.9625 -0.0500005 0.00109988
0.975 -0.0500005 0.00109988
0.9875 -0.0500005 0.00109988
1 -0.0500005 0.00109988
1.0125 -0.0500005 0.00109988
1.025 -0.0500005 0.00109988
1.0375 -0.0500005 0.00109988
1.05 -0.0500005 0.00109988
1.0625 -0.0500005 0.00109988
1.075 -0.0500005 0.00109988
1.0875 -0.0500005 0.00109988
1.1 -0.0500005 0.00109988
1.1125 -0.0500005 0.00109988
1.125 -0.0500005 0.00109988
1.1375 -0.0500005 0.00109988
1.15 -0.0500005 0.00109988
1.1625 -0.0500005 0.00109988
1.175 -0.0500005 0.00109988
1.1875 -0.0500005 0.00109988
1.2 -0.0500005 0.00109988
1.2125 -0.0500005 0.00109988
1.225 -0.0500005 0.00109988
1.2375 -0.0500005 0.00109989
1.25 -0.0500005 0.00109989
1.2625 -0.0500005 0.00109989
1.275 -0.0500005 0.00109989
1.2875 -0.0500005 0.00109989
1.3 -0.0500005 0.00109989
1.3125 -0.0500005 0.00109989
1.325 -0.0500005 0.00109989
1.3375 -0.0500005 0.00109989
1.35 -0.0500005 0.00109989
1.3625 -0.0500005 0.00109989
1.375 -0.0500005 0.00109989
1.3875 -0.0500005 0.00109989
1.4 -0.0500005 0.00109989
1.4125 -0.0500005 0.00109989
1.425 -0.0500005 0.00109989
1.4375 -0.0500005 0.0010999
1.45 -0.0500005 0.0010999
1.4625 -0.0500005 0.0010999
1.475 -0.0500005 0.0010999
1.4875 -0.0500005 0.0010999
1.5 -0.0500006 0.0010999
1.5125 -0.0500006 0.0010999
1.525 -0.0500006 0.0010999
1.5375 -0.0500006 0.0010999
1.55 -0.0500006 0.0010999
1.5625 -0.0500006 0.0010999
1.575 -0.0500006 0.0010999
1.5875 -0.0500006 0.0010999
1.6 -0.0500006 0.0010999
1.6125 -0.0500006 0.00109991
1.625 -0.0500006 0.00109991
1.6375 -0.0500006 0.00109991
1.65 -0.0500006 0.00109991
1.6625 -0.0500006 0.00109991
1.675 -0.0500006 0.00109991
1.6875 -0.0500006 0.00109991
1.7 -0.0500006 0.00109991
1.7125 -0.0500006 0.00109991
1.725 -0.0500006 0.00109991
1.7375 -0.0500006 0.00109991
1.75 -0.0500006 0.00109991
1.7625 -0.0500006 0.00109992
1.775 -0.0500006 0.00109992
1.7875 -0.0500006 0.00109992
1.8 -0.0500006 0.00109992
1.8125 -0.0500006 0.00109992
1.825 -0.0500006 0.00109992
1.8375 -0.0500006 0.00109992
1.85 -0.0500006 0.00109992
1.8625 -0.0500006 0.00109992
1.875 -0.0500006 0.00109992
1.8875 -0.0500006 0.00109992
1.9 -0.0500006 0.00109992
1.9125 -0.0500006 0.00109993
1.925 -0.0500006 0.00109993
1.9375 -0.0500006 0.00109993
1.95 -0.0500006 0.00109993
1.9625 -0.0500006 0.00109993
1.975 -0.0500006 0.00109993
1.9875 -0.0500006 0.00109993
2 -0.0500006 0.00109993
2.0125 -0.0500006 0.00109993
2.025 -0.0500006 0.00109993
2.0375 -0.0500006 0.00109993
2.05 -0.0500006 0.00109993
2.0625 -0.0500006 0.00109994
2.075 -0.0500006 0.00109994
2.0875 -0.0500006 0.00109994
2.1 -0.0500006 0.00109994
2.1125 -0.0500006 0.00109994
2.125 -0.0500006 0.00109994
2.1375 -0.0500006 0.00109994
2.15 -0.0500006 0.00109994
2.1625 -0.0500006 0.00109994
2.175 -0.0500007 0.00109994
2.1875 -0.0500007 0.00109994
2.2 -0.0500007 0.00109994
2.2125 -0.0500007 0.00109994
2.225 -0.0500007 0.00109995
2.2375 -0.0500007 0.00109995
2.25 -0.0500007 0.00109995
2.2625 -0.0500007 0.00109995
2.275 -0.0500007 0.00109995
2.2875 -0.0500007 0.00109995
2.3 -0.0500007 0.00109995
2.3125 -0.0500007 0.00109995
2.325 -0.0500007 0.00109995
2.3375 -0.0500007 0.00109995
2.35 -0.0500007 0.00109995
2.3625 -0.0500007 0.00109995
2.375 -0.0500007 0.00109995
2.3875 -0.0500007 0.00109996
2.4 -0.0500007 0.00109996
2.4125 -0.0500007 0.00109996
2.425 -0.0500007 0.00109996
2.4375 -0.0500007 0.00109996
2.45 -0.0500007 0.00109996
2.4625 -0.0500007 0.00109996
2.475 -0.0500007 0.00109996
2.4875 -0.0500007 0.00109996
2.5 -0.0500007 0.00109996
2.5125 -0.0500007 0.00109996
2.525 -0.0500007 0.00109996
2.5375 -0.0500007 0.00109996
2.55 -0.0500007 0.00109996
2.5625 -0.0500007 0.00109997
2.575 -0.0500007 0.00109997
2.5875 -0.0500007 0.00109997
2.6 -0.0500007 0.00109997
2.6125 -0.0500007 0.00109997
2.625 -0.0500007 0.00109997
2.6375 -0.0500007 0.00109997
2.65 -0.0500007 0.00109997
2.6625 -0.0500007 0.00109997
2.675 -0.0500007 0.00109997
2.6875 -0.0500007 0.00109997
2.7 -0.0500007 0.00109997
2.7125 -0.0500007 0.00109997
2.725 -0.0500007 0.00109997
2.7375 -0.0500007 0.00109997
2.75 -0.0500007 0.00109997
2.7625 -0.0500007 0.00109998
2.775 -0.0500007 0.00109998
2.7875 -0.0500007 0.00109998
2.8 -0.0500007 0.00109998
2.8125 -0.0500007 0.00109998
2.825 -0.0500007 0.00109998
2.8375 -0.0500007 0.00109998
2.85 -0.0500007 0.00109998
2.8625 -0.0500008 0.00109998
2.875 -0.0500008 0.00109998
2.8875 -0.0500008 0.00109998
2.9 -0.0500008 0.00109998
2.9125 -0.0500008 0.00109998
2.925 -0.0500008 0.00109998
2.9375 -0.0500008 0.00109998
2.95 -0.0500008 0.00109998
2.9625 -0.0500008 0.00109998
2.975 -0.0500008 0.00109998
2.9875 -0.0500008 0.00109998
3 -0.0500008 0.00109998
3.0125 -0.0500008 0.00109999
3.025 -0.0500008 0.00109999
3.0375 -0.0500008 0.00109999
3.05 -0.0500008 0.00109999
3.0625 -0.0500008 0.00109999
3.075 -0.0500008 0.00109999
3.0875 -0.0500008 0.00109999
3.1 -0.0500008 0.00109999
3.1125 -0.0500008 0.00109999
3.125 -0.0500008 0.00109999
3.1375 -0.0500008 0.00109999
3.15 -0.0500008 0.00109999
3.1625 -0.0500008 0.00109999
3.175 -0.0500008 0.00109999
3.1875 -0.0500008 0.00109999
3.2 -0.0500008 0.00109999
3.2125 -0.0500008 0.00109999
3.225 -0.0500008 0.00109999
3.2375 -0.0500008 0.00109999
3.25 -0.0500008 0.00109999
3.2625 -0.0500008 0.00109999
3.275 -0.0500008 0.00109999
3.2875 -0.0500008 0.00109999
3.3 -0.0500008 0.00109999
3.3125 -0.0500008 0.00109999
3.325 -0.0500008 0.00109999
3.3375 -0.0500008 0.00109999
3.35 -0.0500008 0.0011
3.3625 -0.0500008 0.0011
[...]
POINT_DATA 15780
 FIELD attributes 2
p 1 15780 float
-0.0310985 -0.0311145 -0.0311306 -0.0311466 -0.0311627 -0.0311787 -0.0321102 -0.0330339 -0.0339577 -0.0348814 -0.0359018 -0.0369657 -0.0380321 -0.0390984 -0.0401648 -0.0411845 -0.0421679 -0.0431327 -0.0440975 -0.0450623 -0.0459755 -0.0468733 -0.0477759 -0.0486784 -0.049581 -0.0504777 -0.0513783 -0.0522798 -0.0531813 -0.0540828 -0.0549836 -0.0558911 -0.0567991 -0.0577071 -0.058615 -0.0595225 -0.0604221 -0.0613196 -0.0622171 -0.0631146 -0.0640092 -0.0648882 -0.0657654 -0.0666425 -0.0675197 -0.0683947 -0.0692521 -0.0701074 -0.0709627 -0.071818 -0.0726714 -0.0735061 -0.0743381 -0.0751701 -0.0760022 -0.0768319 -0.0776402 -0.0784453 -0.0792505 -0.0800557 -0.080858 -0.0816361 -0.0824104 -0.0831846 -0.0839589 -0.0847296 -0.0854737 -0.0862137 -0.0869536 -0.0876936 -0.0884296 -0.089137 -0.0898395 -0.0905421 -0.0912446 -0.0919426 -0.0926099 -0.0932721 -0.0939342 -0.0945964 -0.0952536 -0.095878 -0.0964969 -0.0971157 -0.0977346 -0.0983478 -0.0989268 -0.0995 -0.100073 -0.100646 -0.101214 -0.101746 -0.102272 -0.102799 -0.103325 -0.103845 -0.10433 -0.104807 -0.105285 -0.105762 -0.106234 -0.106668 -0.107095 -0.107522 -0.107948 -0.108368 -0.108748 -0.109121 -0.109494 -0.109867 -0.110232 -0.110556 -0.110873 -0.111191 -0.111508 -0.111817 -0.112085 -0.112345 -0.112605 -0.112866 -0.113118 -0.113328 -0.113531 -0.113734 -0.113936 -0.114131 -0.114283 -0.114427 -0.114571 -0.114716 -0.114851 -0.114944 -0.11503 -0.115115 -0.115201 -0.115278 -0.115314 -0.115343 -0.115372 -0.115401 -0.115422 -0.115404 -0.115378 -0.115353 -0.115327 -0.115295 -0.115224 -0.115146 -0.115069 -0.114991 -0.114906 -0.114783 -0.114654 -0.114524 -0.114395 -0.114258 -0.114084 -0.113903 -0.113722 -0.113541 -0.113352 -0.113128 -0.112898 -0.112667 -0.112437 -0.112199 -0.111929 -0.111652 -0.111375 -0.111099 -0.110815 -0.110501 -0.11018 -0.109859 -0.109539 -0.109211 -0.108855 -0.108493 -0.10813 -0.107768 -0.107399 -0.107002 -0.1066 -0.106198 -0.105796 -0.105389 -0.104955 -0.104517 -0.104079 -0.10364 -0.103197 -0.10273 -0.10226 -0.101789 -0.101319 -0.100844 -0.10035 -0.0998517 -0.0993536 -0.0988555 -0.0983533 -0.0978345 -0.097312 -0.0967896 -0.0962671 -0.0957409 -0.0951999 -0.0946555 -0.0941112 -0.0935668 -0.0930187 -0.0924578 -0.091894 -0.0913302 -0.0907665 -0.0901995 -0.0896218 -0.0890417 -0.0884615 -0.0878813 -0.0872982 -0.0867067 -0.0861133 -0.0855199 -0.0849265 -0.0843308 -0.083729 -0.0831255 -0.0825219 -0.0819184 -0.0813128 -0.0807032 -0.0800924 -0.0794815 -0.0788707 -0.0782584 -0.077644 -0.0770286 -0.0764132 -0.0757978 -0.0751811 -0.0745641 -0.0739467 -0.0733293 -0.0727119 -0.0720938 -0.071477 -0.07086 -0.070243 -0.069626 -0.0690085 -0.0683939 -0.0677796 -0.0671653 -0.0665509 -0.0659365 -0.0653265 -0.0647168 -0.0641071 -0.0634974 -0.0628878 -0.0622838 -0.0616806 -0.0610774 -0.0604742 -0.0598715 -0.0592756 -0.0586806 -0.0580856 -0.0574905 -0.0568962 -0.0563097 -0.0557244 -0.0551391 -0.0545539 -0.0539696 -0.0533942 -0.0528201 -0.0522459 -0.0516718 -0.0510988 -0.0505354 -0.0499736 -0.0494119 -0.0488501 -0.0482897 -0.0477397 -0.0471914 -0.046643 -0.0460946 -0.0455478 -0.0450118 -0.0444778 -0.0439437 -0.0434097 -0.0428774 -0.0423565 -0.0418376 -0.0413187 -0.0407997 -0.0402826 -0.0397772 -0.039274 -0.0387708 -0.0382676 -0.0377664 -0.0372773 -0.0367903 -0.0363034 -0.0358164 -0.0353315 -0.0348588 -0.0343885 -0.0339181 -0.0334477 -0.0329796 -0.0325238 -0.0320704 -0.0316169 -0.0311634 -0.0307122 -0.0302733 -0.0298369 -0.0294005 -0.0289641 -0.02853 -0.0281083 -0.027689 -0.0272696 -0.0268503 -0.0264333 -0.0260287 -0.0256265 -0.0252242 -0.024822 -0.0244222 -0.0240346 -0.0236495 -0.0232644 -0.0228793 -0.0224966 -0.0221262 -0.0217583 -0.0213904 -0.0210225 -0.0206571 -0.0203039 -0.0199531 -0.0196024 -0.0192516 -0.0189032 -0.0185666 -0.0182325 -0.0178985 -0.0175645 -0.017233 -0.0169126 -0.0165947 -0.0162768 -0.0159589 -0.0156435 -0.0153389 -0.0150366 -0.0147342 -0.0144319 -0.0141321 -0.0138428 -0.0135557 -0.0132686 -0.0129816 -0.0126971 -0.0124228 -0.0121507 -0.0118786 -0.0116065 -0.0113367 -0.011077 -0.0108195 -0.0105621 -0.0103046 -0.0100494 -0.00980412 -0.00956096 -0.0093178 -0.00907464 -0.00883368 -0.00860221 -0.00837277 -0.00814334 -0.0079139 -0.00768655 -0.00746819 -0.00725194 -0.00703569 -0.00681945 -0.00660527 -0.00639974 -0.00619625 -0.00599275 -0.00578925 -0.00558775 -0.00539452 -0.00520341 -0.00501229 -0.00482118 -0.00463216 -0.00445112 -0.00427218 -0.00409324 -0.00391431 -0.00373742 -0.00356818 -0.003401 -0.00323382 -0.00306664 -0.0029015 -0.00274345 -0.00258727 -0.00243109 -0.00227492 -0.00212077 -0.00197326 -0.00182728 -0.00168129 -0.00153531 -0.00139111 -0.00125314 -0.00111678 -0.000980423 -0.000844062 -0.000709476 -0.0005808 -0.000453733 -0.000326665 -0.000199598 -7.41761e-05 4.5494e-05 0.000163549 0.000281603 0.000399658 0.000516094 0.000627083 0.000736486 0.000845889 0.000955292 0.00106307 0.00116581 0.001267 0.00136819 0.00146938 0.00156899 0.00166388 0.00175732 0.00185075 0.00194419 0.00203611 0.00212365 0.00220975 0.00229586 0.00238197 0.0024666 0.00254711 0.00262628 0.00270546 0.00278463 0.00286241 0.00293635 0.00300897 0.0030816 0.00315423 0.00322546 0.00329316 0.00335961 0.00342607 0.00349252 0.00355767 0.00361953 0.00368017 0.00374081 0.00380144 0.0038608 0.00391712 0.00397231 0.00402749 0.00408267 0.00413664 0.00418784 0.00423789 0.00428795 0.00433801 0.00438686 0.00443317 0.00447841 0.00452364 0.00456887 0.00461298 0.00465475 0.00469545 0.00473616 0.00477686 0.00481646 0.00485391 0.00489038 0.00492685 0.00496331 0.00499873 0.00503223 0.00506474 0.00509725 0.00512976 0.00516122 0.00519096 0.00521977 0.00524859 0.0052774 0.00530525 0.00533152 0.00535689 0.00538226 0.00540762 0.00543203 0.00545503 0.00547719 0.00549935 0.00552151 0.00554277 0.0055628 0.00558199 0.00560118 0.00562036 0.00563865 0.00565587 0.00567231 0.00568874 0.00570518 0.00572078 0.00573545 0.00574934 0.00576324 0.00577713 0.00579019 0.00580245 0.005814 0.00582554 0.00583708 0.00584785 0.00585795 0.00586733 0.00587671 0.00588609 0.00589469 0.00590277 0.00591016 0.00591755 0.00592495 0.00593162 0.00593787 0.00594345 0.00594902 0.0059546 0.00595946 0.005964 0.00596792 0.00597184 0.00597576 0.005979 0.00598205 0.00598446 0.00598687 0.00598928 0.00599102 0.00599266 0.0059937 0.00599474 0.00599579 0.0059962 0.0059966 0.0059964 0.0059962 0.00599601 0.00599518 0.00599442 0.00599312 0.00599181 0.0059905 0.00598861 0.00598688 0.00598459 0.0059823 0.00598001 0.00597714 0.00597449 0.00597132 0.00596815 0.00596498 0.00596127 0.00595784 0.0059539 0.00594995 0.00594601 0.00594152 0.0059374 0.00593279 0.00592818 0.00592357 0.00591845 0.00591376 0.00590859 0.00590341 0.00589824 0.00589255 0.00588736 0.00588172 0.00587607 0.00587043 0.00586429 0.00585873 0.0058527 0.00584667 0.00584064 0.00583412 0.00582823 0.0058219 0.00581557 0.00580924 0.00580246 0.00579635 0.0057898 0.00578325 0.0057767 0.0057697 0.00576343 0.00575674 0.00575005 0.00574336 0.00573624 0.0057299 0.00572315 0.00571639 0.00570964 0.00570245 0.0056961 0.00568935 0.0056826 0.00567585 0.00566868 0.0056624 0.00565572 0.00564904 0.00564236 0.00563527 0.00562912 0.00562258 0.00561603 0.00560949 0.00560255 0.00559659 0.00559024 0.0055839 0.00557755 0.00557082 0.00556512 0.00555903 0.00555295 0.00554686 0.00554039 0.00553499 0.00552922 0.00552344 0.00551767 0.00551152 0.00550649 0.00550108 0.00549567 0.00549025 0.00548447 0.00547983 0.00547482 0.0054698 0.00546479 0.00545941 0.00545522 0.00545063 0.00544604 0.00544145 0.00543649 0.00543271 0.00542854 0.00542437 0.0054202 0.00541566 0.00541227 0.00540846 0.00540464 0.00540083 0.00539662 0.00539342 0.00538978 0.00538613 0.00538249 0.00537843 0.00537501 0.0053711 0.00536718 0.00536326 0.00535886 0.00535395 0.00534822 0.00534249 0.00533677 0.00533025 0.00532147 0.00531226 0.00530305 0.00529384 0.00528414 0.00525801 0.00522636 0.0051947 0.00516305 0.00512651 0.00511503 0.00511768 0.00512033 0.00512298 0.00514859 0.00523219 0.00530822 0.00538758 0.00545055 0.00549616 0.00548913 0.00548529 0.00548145 0.00547764 0.0054761 0.00550298 0.00553065 0.00555833 0.00557799 0.00559895 0.00561288 0.00563172 0.00565059 0.00566947 0.00568379 0.00574668 0.00581168 0.00587669 0.0059417 0.0059982 0.00608963 0.00616574 0.00624184 0.00631795 0.00632309 0.00630845 0.00628907 0.00626969 0.00625031 0.00624043 0.00603958 0.00581802 0.00559646 0.0053749 0.00504753 0.00456755 0.00407367 0.00357979 0.00308592 0.00262183 0.00235207 0.00207477 0.00179747 0.00152018 0.00127284 0.00117425 0.00106923 0.000964216 0.000859197 0.000773558 0.000667649 0.000556184 0.000444718 0.000333251 0.00025527
-0.0319479 -0.031967 -0.0319861 -0.0320052 -0.0320243 -0.0320434 -0.0327443 -0.0336219 -0.0344046 -0.035167 -0.0362253 -0.037262 -0.0382524 -0.0392548 -0.0403143 -0.0412982 -0.0422594 -0.0432254 -0.0441661 -0.0451013 -0.0460072 -0.0469053 -0.0478114 -0.0487173 -0.0496224 -0.0505275 -0.0514192 -0.0523229 -0.0532316 -0.0541413 -0.0550617 -0.0559668 -0.0568791 -0.0577908 -0.0587003 -0.0596154 -0.0605167 -0.0614151 -0.0623147 -0.0632145 -0.0641107 -0.0649917 -0.0658717 -0.0667513 -0.067629 -0.0685048 -0.069363 -0.0702187 -0.0710769 -0.0719356 -0.0727922 -0.0736262 -0.0744616 -0.0752965 -0.0761288 -0.0769625 -0.0777697 -0.0785751 -0.0793828 -0.0801911 -0.0809978 -0.0817735 -0.0825507 -0.0833273 -0.0841017 -0.0848777 -0.0856185 -0.0863585 -0.0871008 -0.0878435 -0.0885859 -0.0892883 -0.0899935 -0.0906982 -0.0914008 -0.0921063 -0.0927675 -0.0934297 -0.0940939 -0.0947585 -0.0954243 -0.0960412 -0.0966623 -0.097283 -0.0979017 -0.0985245 -0.0990935 -0.0996665 -0.100241 -0.100816 -0.101396 -0.101915 -0.102442 -0.10297 -0.103496 -0.10403 -0.104503 -0.10498 -0.105458 -0.105937 -0.106422 -0.106844 -0.107271 -0.107698 -0.108125 -0.108556 -0.108926 -0.109299 -0.109671 -0.110044 -0.110419 -0.110734 -0.11105 -0.111367 -0.111684 -0.112002 -0.112261 -0.112521 -0.112781 -0.11304 -0.1133 -0.113503 -0.113705 -0.113907 -0.114109 -0.114311 -0.114456 -0.1146 -0.114743 -0.114887 -0.11503 -0.115113 -0.115198 -0.115284 -0.115369 -0.115456 -0.11548 -0.115509 -0.115538 -0.115566 -0.1156 -0.115567 -0.115541 -0.115515 -0.11549 -0.11547 -0.115386 -0.115308 -0.115228 -0.115149 -0.115075 -0.11494 -0.114807 -0.114674 -0.114544 -0.114416 -0.11423 -0.114048 -0.113864 -0.113679 -0.1135 -0.113264 -0.11303 -0.112796 -0.112565 -0.112336 -0.112054 -0.111777 -0.111497 -0.111216 -0.11094 -0.110615 -0.110291 -0.109967 -0.109646 -0.109325 -0.10896 -0.108597 -0.108232 -0.107867 -0.107503 -0.1071 -0.106696 -0.106292 -0.10589 -0.105487 -0.105046 -0.104608 -0.104168 -0.103728 -0.103289 -0.102813 -0.10234 -0.101867 -0.101396 -0.100928 -0.100423 -0.0999239 -0.0994227 -0.0989211 -0.098426 -0.0978969 -0.0973707 -0.096845 -0.0963221 -0.0958019 -0.0952522 -0.0947075 -0.0941601 -0.0936122 -0.0930691 -0.0925006 -0.0919335 -0.091367 -0.0908029 -0.0902398 -0.0896552 -0.0890746 -0.0884918 -0.0879085 -0.087329 -0.0867312 -0.0861348 -0.0855388 -0.0849451 -0.0843524 -0.0837447 -0.0831409 -0.0825349 -0.0819285 -0.0813258 -0.0807109 -0.0800974 -0.0794843 -0.0788731 -0.078263 -0.0776439 -0.0770282 -0.0764106 -0.0757926 -0.075178 -0.0745569 -0.0739371 -0.0733176 -0.0727 -0.0720832 -0.0714629 -0.0708456 -0.0702268 -0.0696076 -0.0689914 -0.0683739 -0.0677576 -0.0671416 -0.0665271 -0.0659135 -0.0653009 -0.064691 -0.0640798 -0.0634683 -0.0628594 -0.0622534 -0.0616485 -0.0610439 -0.0604405 -0.0598381 -0.0592404 -0.0586453 -0.058049 -0.0574525 -0.0568583 -0.0562706 -0.055684 -0.0550976 -0.0545123 -0.0539278 -0.0533514 -0.0527772 -0.0522021 -0.0516268 -0.0510536 -0.0504897 -0.0499269 -0.0493643 -0.0488024 -0.0482415 -0.0476912 -0.0471428 -0.0465937 -0.0460445 -0.045497 -0.0449612 -0.0444264 -0.0438918 -0.0433577 -0.0428246 -0.042304 -0.0417851 -0.0412656 -0.0407461 -0.0402281 -0.0397234 -0.0392197 -0.0387161 -0.0382129 -0.0377106 -0.0372223 -0.0367353 -0.0362481 -0.0357608 -0.0352747 -0.0348031 -0.0343326 -0.033862 -0.0333917 -0.0329222 -0.0324677 -0.0320143 -0.0315607 -0.0311071 -0.0306546 -0.0302171 -0.0297807 -0.0293443 -0.0289079 -0.0284724 -0.0280522 -0.027633 -0.0272137 -0.0267945 -0.0263762 -0.0259731 -0.0255711 -0.025169 -0.0247668 -0.0243655 -0.0239795 -0.0235945 -0.0232095 -0.0228245 -0.0224406 -0.0220715 -0.0217039 -0.0213362 -0.0209684 -0.0206018 -0.0202498 -0.0198991 -0.0195486 -0.0191981 -0.0188488 -0.0185134 -0.0181795 -0.0178455 -0.0175116 -0.0171789 -0.0168603 -0.0165426 -0.0162248 -0.0159071 -0.0155904 -0.0152879 -0.0149859 -0.0146839 -0.0143817 -0.01408 -0.0137935 -0.0135065 -0.0132198 -0.0129332 -0.0126463 -0.0123749 -0.0121033 -0.0118316 -0.0115595 -0.0112873 -0.0110303 -0.0107728 -0.0105158 -0.0102588 -0.0100013 -0.00975851 -0.00951581 -0.00927304 -0.00902992 -0.00878701 -0.00855802 -0.00832867 -0.00809972 -0.00787087 -0.00764152 -0.00742583 -0.00721031 -0.00699468 -0.00677855 -0.00656268 -0.00635959 -0.0061562 -0.00595333 -0.00575058 -0.00554754 -0.00535655 -0.00516618 -0.00497569 -0.00478466 -0.00459418 -0.00441503 -0.00423615 -0.00405767 -0.00387928 -0.00370126 -0.00353325 -0.0033663 -0.00319932 -0.00303217 -0.00286584 -0.00270922 -0.00255311 -0.0023971 -0.00224112 -0.00208578 -0.00194008 -0.0017945 -0.00164887 -0.001503 -0.00135743 -0.00122202 -0.00108579 -0.00094994 -0.000814178 -0.000677655 -0.000551688 -0.000425285 -0.000298782 -0.000171826 -4.45835e-05 7.26901e-05 0.000190659 0.000308189 0.000425621 0.00054379 0.00065261 0.000761464 0.000870407 0.000979741 0.00108909 0.00118981 0.00129094 0.00139171 0.00149241 0.00159348 0.00168648 0.00177944 0.00187248 0.00196585 0.00205916 0.00214482 0.00223086 0.00231658 0.00240223 0.0024882 0.00256694 0.00264565 0.00272444 0.00280354 0.00288259 0.00295476 0.00302732 0.00309955 0.00317171 0.0032442 0.00331026 0.00337627 0.00344236 0.00350875 0.00357507 0.00363531 0.00369589 0.0037562 0.00381644 0.00387695 0.00393175 0.00398658 0.00404147 0.00409659 0.00415173 0.00420135 0.00425135 0.00430111 0.00435082 0.00440085 0.00444563 0.00449051 0.00453544 0.00458062 0.00462587 0.00466609 0.00470674 0.00474715 0.00478751 0.00482823 0.00486423 0.00490036 0.00493655 0.00497296 0.0050095 0.0050415 0.00507397 0.0051062 0.00513839 0.00517097 0.0051993 0.0052278 0.00525636 0.00528513 0.00531406 0.00533891 0.00536423 0.00538935 0.00541443 0.00543991 0.00546158 0.00548346 0.00550539 0.00552751 0.00554983 0.00556849 0.00558764 0.0056066 0.00562552 0.00564486 0.0056608 0.00567697 0.00569319 0.00570959 0.00572622 0.00573957 0.00575343 0.00576711 0.00578076 0.00579484 0.00580587 0.00581718 0.00582852 0.00584003 0.0058518 0.00586063 0.00586998 0.00587917 0.00588833 0.00589794 0.0059048 0.00591198 0.0059192 0.00592656 0.00593422 0.00593924 0.00594478 0.00595019 0.00595556 0.00596141 0.00596479 0.00596852 0.00597228 0.00597617 0.00598039 0.00598223 0.00598462 0.00598688 0.00598911 0.00599184 0.00599233 0.0059932 0.0059941 0.00599512 0.00599651 0.00599572 0.0059955 0.00599517 0.0059948 0.00599496 0.00599307 0.00599161 0.00599018 0.00598885 0.00598794 0.00598507 0.00598276 0.00598035 0.00597791 0.00597599 0.00597226 0.00596894 0.00596565 0.00596247 0.00595968 0.00595517 0.0059512 0.00594715 0.00594307 0.00593951 0.00593434 0.00592961 0.0059249 0.00592027 0.00591607 0.00591032 0.00590513 0.00589986 0.00589457 0.00588981 0.0058836 0.00587785 0.00587211 0.00586645 0.00586124 0.00585463 0.00584858 0.00584247 0.00583634 0.00583074 0.00582384 0.00581742 0.00581101 0.00580467 0.0057988 0.00579166 0.0057851 0.00577848 0.00577185 0.00576576 0.0057585 0.00575173 0.00574497 0.00573827 0.00573206 0.00572472 0.00571795 0.00571113 0.0057043 0.00569803 0.0056907 0.00568388 0.00567707 0.00567031 0.00566407 0.00565679 0.0056501 0.00564337 0.00563663 0.00563045 0.00562333 0.00561673 0.00561014 0.00560359 0.00559758 0.00559063 0.00558428 0.0055779 0.0055715 0.00556569 0.00555902 0.0055529 0.00554678 0.00554069 0.00553516 0.00552878 0.005523 0.0055172 0.0055114 0.00550619 0.00550019 0.00549477 0.00548934 0.00548392 0.00547911 0.00547349 0.00546847 0.00546347 0.00545846 0.00545406 0.00544889 0.00544434 0.00543978 0.0054352 0.00543127 0.0054265 0.00542234 0.00541825 0.00541418 0.00541073 0.00540635 0.00540276 0.00539913 0.00539534 0.00539236 0.00538819 0.0053846 0.00538136 0.00537821 0.00537565 0.00537132 0.0053685 0.0053655 0.00536172 0.00535944 0.00535411 0.00534885 0.00534586 0.0053434 0.00534096 0.00533191 0.00533017 0.00532725 0.00531931 0.00531826 0.00530394 0.00527937 0.00527485 0.00527507 0.00526433 0.00522143 0.005233 0.00524336 0.00524863 0.00531674 0.00541019 0.00547374 0.00553731 0.00557528 0.00552897 0.00550974 0.0055027 0.00549565 0.00548815 0.00549215 0.00550968 0.00552784 0.005546 0.00555769 0.00556895 0.00557 0.00557106 0.00557211 0.00557303 0.00557373 0.00559856 0.0056275 0.00565653 0.00568557 0.00565894 0.00569709 0.00575973 0.00582274 0.00588575 0.00596574 0.00618001 0.00626902 0.00635148 0.00642758 0.00632066 0.00635652 0.00633714 0.00632069 0.00631123 0.00625585 0.00620931 0.00598775 0.00576619 0.00553206 0.00503846 0.00469885 0.00420497 0.00371109 0.00321454 0.00259574 0.00241412 0.00213682 0.00185953 0.00158223 0.00124244 0.00122334 0.00111833 0.00101331 0.000908289 0.000751126 0.000715136 0.000603672 0.000492208 0.000380744 0.00020675