# vtk DataFile Version 2.0
track0
ASCII
DATASET POLYDATA
POINTS 15780 float
-1.001 -0.05 0.0011
-1.0008 -0.05 0.0011
-1.0006 -0.05 0.0011
-1.0004 -0.05 0.0011
-1.0002 -0.05 0.0011
-1 -0.05 0.0011
-0.9875 -0.05 0.0011
-0.975 -0.05 0.0011
-0.9625 -0.05 0.0011
-0.95 -0.05 0.0011
-0.9375 -0.05 0.00109999
-0.925 -0.05 0.00109999
-0.9125 -0.05 0.00109999
-0.9 -0.05 0.00109999
-0.8875 -0.05 0.00109999
-0.875 -0.05 0.00109999
-0.8625 -0.05 0.00109999
-0.85 -0.05 0.00109999
-0.8375 -0.05 0.00109998
-0.825 -0.0500001 0.00109998
-0.8125 -0.0500001 0.00109998
-0.8 -0.0500001 0.00109998
-0.7875 -0.0500001 0.00109998
-0.775 -0.0500001 0.00109998
-0.7625 -0.0500001 0.00109998
-0.75 -0.0500001 0.00109998
-0.7375 -0.0500001 0.00109997
-0.725 -0.0500001 0.00109997
-0.7125 -0.0500001 0.00109997
-0.7 -0.0500001 0.00109997
-0.6875 -0.0500001 0.00109997
-0.675 -0.0500001 0.00109997
-0.6625 -0.0500001 0.00109997
-0.65 -0.0500001 0.00109996
-0.6375 -0.0500001 0.00109996
-0.625 -0.0500001 0.00109996
-0.6125 -0.0500001 0.00109996
-0.6 -0.0500001 0.00109996
-0.5875 -0.0500001 0.00109996
-0.575 -0.0500001 0.00109996
-0.5625 -0.0500001 0.00109996
-0.55 -0.0500001 0.00109995
-0.5375 -0.0500001 0.00109995
-0.525 -0.0500001 0.00109995
-0.5125 -0.0500001 0.00109995
-0.5 -0.0500001 0.00109995
-0.4875 -0.0500001 0.00109995
-0.475 -0.0500001 0.00109995
-0.4625 -0.0500001 0.00109994
-0.45 -0.0500002 0.00109994
-0.4375 -0.0500002 0.00109994
-0.425 -0.0500002 0.00109994
-0.4125 -0.0500002 0.00109994
-0.4 -0.0500002 0.00109994
-0.3875 -0.0500002 0.00109994
-0.375 -0.0500002 0.00109994
-0.3625 -0.0500002 0.00109993
-0.35 -0.0500002 0.00109993
-0.3375 -0.0500002 0.00109993
-0.325 -0.0500002 0.00109993
-0.3125 -0.0500002 0.00109993
-0.3 -0.0500002 0.00109993
-0.2875 -0.0500002 0.00109993
-0.275 -0.0500002 0.00109993
-0.2625 -0.0500002 0.00109992
-0.25 -0.0500002 0.00109992
-0.2375 -0.0500002 0.00109992
-0.225 -0.0500002 0.00109992
-0.2125 -0.0500002 0.00109992
-0.2 -0.0500002 0.00109992
-0.1875 -0.0500002 0.00109992
-0.175 -0.0500002 0.00109992
-0.1625 -0.0500002 0.00109991
-0.15 -0.0500002 0.00109991
-0.1375 -0.0500002 0.00109991
-0.125 -0.0500002 0.00109991
-0.1125 -0.0500002 0.00109991
-0.1 -0.0500002 0.00109991
-0.0875 -0.0500002 0.00109991
-0.075 -0.0500002 0.00109991
-0.0625 -0.0500002 0.00109991
-0.05 -0.0500003 0.00109991
-0.0375 -0.0500003 0.0010999
-0.025 -0.0500003 0.0010999
-0.0125 -0.0500003 0.0010999
2.10607e-13 -0.0500003 0.0010999
0.0125 -0.0500003 0.0010999
0.025 -0.0500003 0.0010999
0.0375 -0.0500003 0.0010999
0.05 -0.0500003 0.0010999
0.0625 -0.0500003 0.0010999
0.075 -0.0500003 0.0010999
0.0875 -0.0500003 0.0010999
0.1 -0.0500003 0.00109989
0.1125 -0.0500003 0.00109989
0.125 -0.0500003 0.00109989
0.1375 -0.0500003 0.00109989
0.15 -0.0500003 0.00109989
0.1625 -0.0500003 0.00109989
0.175 -0.0500003 0.00109989
0.1875 -0.0500003 0.00109989
0.2 -0.0500003 0.00109989
0.2125 -0.0500003 0.00109989
0.225 -0.0500003 0.00109989
0.2375 -0.0500003 0.00109989
0.25 -0.0500003 0.00109989
0.2625 -0.0500003 0.00109988
0.275 -0.0500003 0.00109988
0.2875 -0.0500003 0.00109988
0.3 -0.0500003 0.00109988
0.3125 -0.0500003 0.00109988
0.325 -0.0500003 0.00109988
0.3375 -0.0500003 0.00109988
0.35 -0.0500003 0.00109988
0.3625 -0.0500003 0.00109988
0.375 -0.0500003 0.00109988
0.3875 -0.0500003 0.00109988
0.4 -0.0500004 0.00109988
0.4125 -0.0500004 0.00109988
0.425 -0.0500004 0.00109988
0.4375 -0.0500004 0.00109988
0.45 -0.0500004 0.00109988
0.4625 -0.0500004 0.00109988
0.475 -0.0500004 0.00109988
0.4875 -0.0500004 0.00109988
0.5 -0.0500004 0.00109988
0.5125 -0.0500004 0.00109988
0.525 -0.0500004 0.00109988
0.5375 -0.0500004 0.00109988
0.55 -0.0500004 0.00109988
0.5625 -0.0500004 0.00109988
0.575 -0.0500004 0.00109987
0.5875 -0.0500004 0.00109987
0.6 -0.0500004 0.00109987
0.6125 -0.0500004 0.00109987
0.625 -0.0500004 0.00109987
0.6375 -0.0500004 0.00109987
0.65 -0.0500004 0.00109987
0.6625 -0.0500004 0.00109987
0.675 -0.0500004 0.00109987
0.6875 -0.0500004 0.00109987
0.7 -0.0500004 0.00109987
0.7125 -0.0500004 0.00109987
0.725 -0.0500004 0.00109987
0.7375 -0.0500004 0.00109987
0.75 -0.0500004 0.00109987
0.7625 -0.0500004 0.00109987
0.775 -0.0500004 0.00109987
0.7875 -0.0500004 0.00109987
0.8 -0.0500004 0.00109987
0.8125 -0.0500004 0.00109987
0.825 -0.0500004 0.00109987
0.8375 -0.0500004 0.00109987
0.85 -0.0500004 0.00109987
0.8625 -0.0500004 0.00109987
0.875 -0.0500004 0.00109987
0.8875 -0.0500004 0.00109987
0.9 -0.0500004 0.00109987
0.9125 -0.0500005 0.00109988
0.925 -0.0500005 0.00109988
0.9375 -0.0500005 0.00109988
0.95 -0.0500005 0.00109988
0.9625 -0.0500005 0.00109988
0.975 -0.0500005 0.00109988
0.9875 -0.0500005 0.00109988
1 -0.0500005 0.00109988
1.0125 -0.0500005 0.00109988
1.025 -0.0500005 0.00109988
1.0375 -0.0500005 0.00109988
1.05 -0.0500005 0.00109988
1.0625 -0.0500005 0.00109988
1.075 -0.0500005 0.00109988
1.0875 -0.0500005 0.00109988
1.1 -0.0500005 0.00109988
1.1125 -0.0500005 0.00109988
1.125 -0.0500005 0.00109988
1.1375 -0.0500005 0.00109988
1.15 -0.0500005 0.00109988
1.1625 -0.0500005 0.00109988
1.175 -0.0500005 0.00109988
1.1875 -0.0500005 0.00109988
1.2 -0.0500005 0.00109988
1.2125 -0.0500005 0.00109988
1.225 -0.0500005 0.00109988
1.2375 -0.0500005 0.00109989
1.25 -0.0500005 0.00109989
1.2625 -0.0500005 0.00109989
1.275 -0.0500005 0.00109989
1.2875 -0.0500005 0.00109989
1.3 -0.0500005 0.00109989
1.3125 -0.0500005 0.00109989
1.325 -0.0500005 0.00109989
1.3375 -0.0500005 0.00109989
1.35 -0.0500005 0.00109989
1.3625 -0.0500005 0.00109989
1.375 -0.0500005 0.00109989
1.3875 -0.0500005 0.00109989
1.4 -0.0500005 0.00109989
1.4125 -0.0500005 0.00109989
1.425 -0.0500005 0.00109989
1.4375 -0.0500005 0.0010999
1.45 -0.0500005 0.0010999
1.4625 -0.0500005 0.0010999
1.475 -0.0500005 0.0010999
1.4875 -0.0500005 0.0010999
1.5 -0.0500006 0.0010999
1.5125 -0.0500006 0.0010999
1.525 -0.0500006 0.0010999
1.5375 -0.0500006 0.0010999
1.55 -0.0500006 0.0010999
1.5625 -0.0500006 0.0010999
1.575 -0.0500006 0.0010999
1.5875 -0.0500006 0.0010999
1.6 -0.0500006 0.0010999
1.6125 -0.0500006 0.00109991
1.625 -0.0500006 0.00109991
1.6375 -0.0500006 0.00109991
1.65 -0.0500006 0.00109991
1.6625 -0.0500006 0.00109991
1.675 -0.0500006 0.00109991
1.6875 -0.0500006 0.00109991
1.7 -0.0500006 0.00109991
1.7125 -0.0500006 0.00109991
1.725 -0.0500006 0.00109991
1.7375 -0.0500006 0.00109991
1.75 -0.0500006 0.00109991
1.7625 -0.0500006 0.00109992
1.775 -0.0500006 0.00109992
1.7875 -0.0500006 0.00109992
1.8 -0.0500006 0.00109992
1.8125 -0.0500006 0.00109992
1.825 -0.0500006 0.00109992
1.8375 -0.0500006 0.00109992
1.85 -0.0500006 0.00109992
1.8625 -0.0500006 0.00109992
1.875 -0.0500006 0.00109992
1.8875 -0.0500006 0.00109992
1.9 -0.0500006 0.00109992
1.9125 -0.0500006 0.00109993
1.925 -0.0500006 0.00109993
1.9375 -0.0500006 0.00109993
1.95 -0.0500006 0.00109993
1.9625 -0.0500006 0.00109993
1.975 -0.0500006 0.00109993
1.9875 -0.0500006 0.00109993
2 -0.0500006 0.00109993
2.0125 -0.0500006 0.00109993
2.025 -0.0500006 0.00109993
2.0375 -0.0500006 0.00109993
2.05 -0.0500006 0.00109993
2.0625 -0.0500006 0.00109993
2.075 -0.0500006 0.00109994
2.0875 -0.0500006 0.00109994
2.1 -0.0500006 0.00109994
2.1125 -0.0500006 0.00109994
2.125 -0.0500006 0.00109994
2.1375 -0.0500006 0.00109994
2.15 -0.0500006 0.00109994
2.1625 -0.0500006 0.00109994
2.175 -0.0500007 0.00109994
2.1875 -0.0500007 0.00109994
2.2 -0.0500007 0.00109994
2.2125 -0.0500007 0.00109994
2.225 -0.0500007 0.00109995
2.2375 -0.0500007 0.00109995
2.25 -0.0500007 0.00109995
2.2625 -0.0500007 0.00109995
2.275 -0.0500007 0.00109995
2.2875 -0.0500007 0.00109995
2.3 -0.0500007 0.00109995
2.3125 -0.0500007 0.00109995
2.325 -0.0500007 0.00109995
2.3375 -0.0500007 0.00109995
2.35 -0.0500007 0.00109995
2.3625 -0.0500007 0.00109995
2.375 -0.0500007 0.00109995
2.3875 -0.0500007 0.00109996
2.4 -0.0500007 0.00109996
2.4125 -0.0500007 0.00109996
2.425 -0.0500007 0.00109996
2.4375 -0.0500007 0.00109996
2.45 -0.0500007 0.00109996
2.4625 -0.0500007 0.00109996
2.475 -0.0500007 0.00109996
2.4875 -0.0500007 0.00109996
2.5 -0.0500007 0.00109996
2.5125 -0.0500007 0.00109996
2.525 -0.0500007 0.00109996
2.5375 -0.0500007 0.00109996
2.55 -0.0500007 0.00109996
2.5625 -0.0500007 0.00109997
2.575 -0.0500007 0.00109997
2.5875 -0.0500007 0.00109997
2.6 -0.0500007 0.00109997
2.6125 -0.0500007 0.00109997
2.625 -0.0500007 0.00109997
2.6375 -0.0500007 0.00109997
2.65 -0.0500007 0.00109997
2.6625 -0.0500007 0.00109997
2.675 -0.0500007 0.00109997
2.6875 -0.0500007 0.00109997
2.7 -0.0500007 0.00109997
2.7125 -0.0500007 0.00109997
2.725 -0.0500007 0.00109997
2.7375 -0.0500007 0.00109997
2.75 -0.0500007 0.00109997
2.7625 -0.0500007 0.00109998
2.775 -0.0500007 0.00109998
2.7875 -0.0500007 0.00109998
2.8 -0.0500007 0.00109998
2.8125 -0.0500007 0.00109998
2.825 -0.0500007 0.00109998
2.8375 -0.0500007 0.00109998
2.85 -0.0500007 0.00109998
2.8625 -0.0500008 0.00109998
2.875 -0.0500008 0.00109998
2.8875 -0.0500008 0.00109998
2.9 -0.0500008 0.00109998
2.9125 -0.0500008 0.00109998
2.925 -0.0500008 0.00109998
2.9375 -0.0500008 0.00109998
2.95 -0.0500008 0.00109998
2.9625 -0.0500008 0.00109998
2.975 -0.0500008 0.00109998
2.9875 -0.0500008 0.00109998
3 -0.0500008 0.00109998
3.0125 -0.0500008 0.00109999
3.025 -0.0500008 0.00109999
3.0375 -0.0500008 0.00109999
3.05 -0.0500008 0.00109999
3.0625 -0.0500008 0.00109999
3.075 -0.0500008 0.00109999
3.0875 -0.0500008 0.00109999
3.1 -0.0500008 0.00109999
3.1125 -0.0500008 0.00109999
3.125 -0.0500008 0.00109999
3.1375 -0.0500008 0.00109999
3.15 -0.0500008 0.00109999
3.1625 -0.0500008 0.00109999
3.175 -0.0500008 0.00109999
3.1875 -0.0500008 0.00109999
3.2 -0.0500008 0.00109999
3.2125 -0.0500008 0.00109999
3.225 -0.0500008 0.00109999
3.2375 -0.0500008 0.00109999
3.25 -0.0500008 0.00109999
3.2625 -0.0500008 0.00109999
3.275 -0.0500008 0.00109999
3.2875 -0.0500008 0.00109999
3.3 -0.0500008 0.00109999
3.3125 -0.0500008 0.00109999
3.325 -0.0500008 0.00109999
3.3375 -0.0500008 0.00109999
3.35 -0.0500008 0.0011
3.3625 -0.0500008 0.0011
[...]
POINT_DATA 15780
 FIELD attributes 2
p 1 15780 float
-0.0310978 -0.0311138 -0.0311299 -0.0311459 -0.0311619 -0.031178 -0.0321094 -0.0330332 -0.0339569 -0.0348807 -0.0359011 -0.0369649 -0.0380313 -0.0390976 -0.040164 -0.0411837 -0.0421671 -0.0431319 -0.0440967 -0.0450615 -0.0459746 -0.0468725 -0.047775 -0.0486776 -0.0495801 -0.0504768 -0.0513774 -0.0522789 -0.0531804 -0.0540819 -0.0549828 -0.0558903 -0.0567982 -0.0577062 -0.0586141 -0.0595216 -0.0604212 -0.0613186 -0.0622161 -0.0631136 -0.0640082 -0.0648873 -0.0657644 -0.0666416 -0.0675187 -0.0683938 -0.0692511 -0.0701064 -0.0709617 -0.071817 -0.0726704 -0.0735051 -0.0743371 -0.0751691 -0.0760012 -0.0768309 -0.0776391 -0.0784443 -0.0792495 -0.0800546 -0.0808569 -0.081635 -0.0824093 -0.0831836 -0.0839578 -0.0847285 -0.0854726 -0.0862126 -0.0869525 -0.0876925 -0.0884285 -0.0891359 -0.0898384 -0.090541 -0.0912435 -0.0919415 -0.0926088 -0.0932709 -0.0939331 -0.0945952 -0.0952524 -0.0958769 -0.0964957 -0.0971145 -0.0977334 -0.0983467 -0.0989256 -0.0994988 -0.100072 -0.100645 -0.101213 -0.101745 -0.102271 -0.102797 -0.103324 -0.103844 -0.104328 -0.104806 -0.105284 -0.105761 -0.106233 -0.106667 -0.107094 -0.10752 -0.107947 -0.108366 -0.108747 -0.10912 -0.109492 -0.109865 -0.110231 -0.110555 -0.110872 -0.111189 -0.111506 -0.111816 -0.112084 -0.112344 -0.112604 -0.112864 -0.113116 -0.113327 -0.11353 -0.113732 -0.113935 -0.11413 -0.114282 -0.114426 -0.11457 -0.114714 -0.11485 -0.114943 -0.115028 -0.115114 -0.115199 -0.115277 -0.115313 -0.115342 -0.115371 -0.115399 -0.11542 -0.115402 -0.115377 -0.115352 -0.115326 -0.115293 -0.115223 -0.115145 -0.115067 -0.11499 -0.114905 -0.114782 -0.114653 -0.114523 -0.114394 -0.114257 -0.114083 -0.113902 -0.11372 -0.113539 -0.113351 -0.113127 -0.112897 -0.112666 -0.112435 -0.112198 -0.111928 -0.111651 -0.111374 -0.111097 -0.110814 -0.110499 -0.110179 -0.109858 -0.109537 -0.10921 -0.108854 -0.108491 -0.108129 -0.107766 -0.107397 -0.107001 -0.106599 -0.106197 -0.105795 -0.105387 -0.104954 -0.104516 -0.104077 -0.103639 -0.103195 -0.102729 -0.102258 -0.101788 -0.101317 -0.100843 -0.100348 -0.0998503 -0.0993522 -0.0988541 -0.0983519 -0.0978331 -0.0973107 -0.0967882 -0.0962658 -0.0957395 -0.0951985 -0.0946542 -0.0941098 -0.0935654 -0.0930174 -0.0924564 -0.0918926 -0.0913289 -0.0907651 -0.0901981 -0.0896205 -0.0890403 -0.0884601 -0.0878799 -0.0872968 -0.0867053 -0.0861119 -0.0855185 -0.0849251 -0.0843295 -0.0837276 -0.0831241 -0.0825206 -0.081917 -0.0813115 -0.0807018 -0.080091 -0.0794802 -0.0788694 -0.0782571 -0.0776426 -0.0770272 -0.0764118 -0.0757964 -0.0751798 -0.0745628 -0.0739454 -0.073328 -0.0727105 -0.0720924 -0.0714756 -0.0708587 -0.0702417 -0.0696247 -0.0690071 -0.0683926 -0.0677782 -0.0671639 -0.0665495 -0.0659352 -0.0653251 -0.0647154 -0.0641057 -0.063496 -0.0628864 -0.0622825 -0.0616792 -0.061076 -0.0604728 -0.0598701 -0.0592742 -0.0586792 -0.0580842 -0.0574892 -0.0568948 -0.0563083 -0.055723 -0.0551378 -0.0545525 -0.0539683 -0.0533928 -0.0528187 -0.0522446 -0.0516705 -0.0510974 -0.0505341 -0.0499723 -0.0494105 -0.0488488 -0.0482884 -0.0477384 -0.04719 -0.0466417 -0.0460933 -0.0455465 -0.0450105 -0.0444765 -0.0439424 -0.0434084 -0.0428761 -0.0423552 -0.0418363 -0.0413174 -0.0407984 -0.0402813 -0.0397759 -0.0392727 -0.0387695 -0.0382663 -0.0377651 -0.037276 -0.0367891 -0.0363021 -0.0358151 -0.0353302 -0.0348575 -0.0343872 -0.0339168 -0.0334465 -0.0329783 -0.0325226 -0.0320691 -0.0316157 -0.0311622 -0.0307109 -0.0302721 -0.0298357 -0.0293993 -0.0289629 -0.0285288 -0.0281071 -0.0276877 -0.0272684 -0.0268491 -0.0264321 -0.0260275 -0.0256252 -0.025223 -0.0248208 -0.0244209 -0.0240334 -0.0236483 -0.0232632 -0.0228781 -0.0224954 -0.022125 -0.0217571 -0.0213892 -0.0210213 -0.0206559 -0.0203027 -0.0199519 -0.0196012 -0.0192505 -0.018902 -0.0185654 -0.0182314 -0.0178974 -0.0175633 -0.0172318 -0.0169114 -0.0165935 -0.0162756 -0.0159577 -0.0156423 -0.0153377 -0.0150354 -0.0147331 -0.0144308 -0.014131 -0.0138416 -0.0135546 -0.0132675 -0.0129805 -0.0126959 -0.0124216 -0.0121496 -0.0118775 -0.0116054 -0.0113356 -0.0110759 -0.0108184 -0.010561 -0.0103035 -0.0100483 -0.00980302 -0.00955986 -0.00931671 -0.00907356 -0.0088326 -0.00860113 -0.00837169 -0.00814226 -0.00791283 -0.00768548 -0.00746713 -0.00725088 -0.00703463 -0.00681839 -0.00660422 -0.00639869 -0.0061952 -0.0059917 -0.00578821 -0.00558671 -0.00539349 -0.00520237 -0.00501126 -0.00482015 -0.00463114 -0.00445009 -0.00427116 -0.00409223 -0.0039133 -0.00373641 -0.00356718 -0.0034 -0.00323282 -0.00306564 -0.0029005 -0.00274245 -0.00258628 -0.0024301 -0.00227393 -0.00211979 -0.00197228 -0.0018263 -0.00168032 -0.00153434 -0.00139014 -0.00125218 -0.00111582 -0.000979463 -0.000843105 -0.000708522 -0.000579848 -0.000452784 -0.00032572 -0.000198656 -7.32375e-05 4.64294e-05 0.000164481 0.000282532 0.000400583 0.000517016 0.000628001 0.000737401 0.000846801 0.000956201 0.00106398 0.00116671 0.0012679 0.00136909 0.00147028 0.00156988 0.00166477 0.0017582 0.00185164 0.00194507 0.00203699 0.00212452 0.00221063 0.00229673 0.00238284 0.00246747 0.00254797 0.00262714 0.00270631 0.00278549 0.00286326 0.0029372 0.00300982 0.00308244 0.00315507 0.0032263 0.003294 0.00336045 0.0034269 0.00349335 0.0035585 0.00362035 0.00368098 0.00374162 0.00380225 0.00386161 0.00391793 0.00397311 0.00402829 0.00408346 0.00413743 0.00418863 0.00423868 0.00428874 0.00433879 0.00438765 0.00443395 0.00447918 0.00452442 0.00456965 0.00461375 0.00465552 0.00469622 0.00473692 0.00477763 0.00481722 0.00485467 0.00489113 0.0049276 0.00496407 0.00499948 0.00503298 0.00506548 0.00509799 0.0051305 0.00516196 0.0051917 0.00522051 0.00524932 0.00527813 0.00530597 0.00533224 0.00535761 0.00538297 0.00540834 0.00543274 0.00545574 0.00547789 0.00550005 0.00552221 0.00554346 0.00556349 0.00558268 0.00560186 0.00562104 0.00563933 0.00565655 0.00567298 0.00568941 0.00570585 0.00572144 0.00573611 0.00575 0.00576389 0.00577778 0.00579084 0.0058031 0.00581464 0.00582618 0.00583772 0.00584849 0.00585858 0.00586796 0.00587734 0.00588671 0.00589531 0.00590338 0.00591077 0.00591816 0.00592555 0.00593223 0.00593847 0.00594404 0.00594962 0.00595519 0.00596005 0.00596458 0.0059685 0.00597242 0.00597633 0.00597958 0.00598262 0.00598503 0.00598744 0.00598985 0.00599158 0.00599321 0.00599426 0.0059953 0.00599634 0.00599675 0.00599715 0.00599695 0.00599675 0.00599655 0.00599572 0.00599495 0.00599365 0.00599234 0.00599103 0.00598914 0.0059874 0.00598511 0.00598282 0.00598052 0.00597765 0.00597499 0.00597182 0.00596865 0.00596548 0.00596176 0.00595833 0.00595439 0.00595044 0.00594649 0.005942 0.00593787 0.00593326 0.00592865 0.00592404 0.00591891 0.00591422 0.00590904 0.00590387 0.00589869 0.005893 0.00588781 0.00588216 0.00587651 0.00587086 0.00586473 0.00585916 0.00585313 0.00584709 0.00584106 0.00583455 0.00582865 0.00582232 0.00581599 0.00580965 0.00580286 0.00579675 0.0057902 0.00578365 0.0057771 0.00577009 0.00576382 0.00575713 0.00575044 0.00574375 0.00573662 0.00573028 0.00572352 0.00571677 0.00571001 0.00570282 0.00569647 0.00568972 0.00568296 0.00567621 0.00566904 0.00566276 0.00565608 0.00564939 0.00564271 0.00563562 0.00562947 0.00562292 0.00561638 0.00560983 0.00560289 0.00559693 0.00559058 0.00558424 0.00557789 0.00557115 0.00556545 0.00555936 0.00555327 0.00554719 0.00554071 0.00553532 0.00552954 0.00552376 0.00551799 0.00551184 0.00550681 0.00550139 0.00549598 0.00549056 0.00548477 0.00548014 0.00547512 0.00547011 0.00546509 0.00545971 0.00545552 0.00545093 0.00544634 0.00544174 0.00543678 0.005433 0.00542882 0.00542465 0.00542048 0.00541594 0.00541255 0.00540874 0.00540492 0.00540111 0.0053969 0.0053937 0.00539005 0.0053864 0.00538276 0.00537869 0.00537528 0.00537136 0.00536744 0.00536352 0.00535912 0.00535421 0.00534848 0.00534275 0.00533702 0.00533051 0.00532172 0.00531251 0.0053033 0.00529409 0.00528439 0.00525826 0.0052266 0.00519495 0.00516329 0.00512675 0.00511526 0.00511791 0.00512056 0.00512321 0.00514883 0.00523242 0.00530845 0.00538781 0.00545077 0.00549638 0.00548935 0.00548551 0.00548167 0.00547786 0.00547632 0.0055032 0.00553087 0.00555854 0.00557821 0.00559916 0.00561309 0.00563193 0.0056508 0.00566967 0.005684 0.00574688 0.00581189 0.00587689 0.0059419 0.0059984 0.00608983 0.00616593 0.00624203 0.00631813 0.00632327 0.00630863 0.00628925 0.00626986 0.00625048 0.00624059 0.00603974 0.00581817 0.00559661 0.00537504 0.00504766 0.00456767 0.00407379 0.00357991 0.00308602 0.00262193 0.00235217 0.00207486 0.00179756 0.00152025 0.00127292 0.00117432 0.00106929 0.000964267 0.000859243 0.000773597 0.000667682 0.000556211 0.00044474 0.000333267 0.00025528
-0.0319471 -0.0319662 -0.0319853 -0.0320044 -0.0320235 -0.0320426 -0.0327435 -0.0336211 -0.0344038 -0.0351663 -0.0362245 -0.0372612 -0.0382516 -0.0392541 -0.0403135 -0.0412974 -0.0422586 -0.0432246 -0.0441652 -0.0451005 -0.0460064 -0.0469045 -0.0478105 -0.0487164 -0.0496216 -0.0505266 -0.0514183 -0.0523221 -0.0532307 -0.0541405 -0.0550608 -0.055966 -0.0568782 -0.0577899 -0.0586994 -0.0596145 -0.0605158 -0.0614141 -0.0623137 -0.0632136 -0.0641097 -0.0649908 -0.0658708 -0.0667504 -0.067628 -0.0685039 -0.069362 -0.0702177 -0.0710759 -0.0719347 -0.0727912 -0.0736252 -0.0744606 -0.0752954 -0.0761278 -0.0769614 -0.0777687 -0.0785741 -0.0793818 -0.08019 -0.0809968 -0.0817724 -0.0825496 -0.0833263 -0.0841007 -0.0848766 -0.0856174 -0.0863574 -0.0870997 -0.0878424 -0.0885848 -0.0892872 -0.0899924 -0.0906971 -0.0913997 -0.0921051 -0.0927664 -0.0934286 -0.0940928 -0.0947574 -0.0954232 -0.0960401 -0.0966611 -0.0972818 -0.0979006 -0.0985233 -0.0990923 -0.0996653 -0.10024 -0.100815 -0.101394 -0.101913 -0.102441 -0.102968 -0.103494 -0.104029 -0.104501 -0.104979 -0.105457 -0.105936 -0.106421 -0.106843 -0.10727 -0.107697 -0.108124 -0.108555 -0.108925 -0.109297 -0.10967 -0.110042 -0.110418 -0.110733 -0.111049 -0.111365 -0.111682 -0.112001 -0.11226 -0.11252 -0.11278 -0.113039 -0.113299 -0.113501 -0.113703 -0.113905 -0.114108 -0.11431 -0.114454 -0.114598 -0.114742 -0.114886 -0.115028 -0.115111 -0.115197 -0.115282 -0.115367 -0.115455 -0.115479 -0.115507 -0.115536 -0.115565 -0.115598 -0.115566 -0.11554 -0.115514 -0.115488 -0.115469 -0.115385 -0.115307 -0.115227 -0.115147 -0.115074 -0.114938 -0.114805 -0.114673 -0.114543 -0.114415 -0.114229 -0.114047 -0.113863 -0.113678 -0.113498 -0.113262 -0.113028 -0.112795 -0.112564 -0.112335 -0.112053 -0.111775 -0.111495 -0.111215 -0.110939 -0.110614 -0.110289 -0.109966 -0.109644 -0.109324 -0.108959 -0.108596 -0.108231 -0.107865 -0.107502 -0.107099 -0.106694 -0.106291 -0.105889 -0.105486 -0.105045 -0.104606 -0.104167 -0.103726 -0.103288 -0.102811 -0.102338 -0.101866 -0.101395 -0.100926 -0.100421 -0.0999225 -0.0994214 -0.0989197 -0.0984247 -0.0978956 -0.0973693 -0.0968437 -0.0963207 -0.0958005 -0.0952509 -0.0947061 -0.0941588 -0.0936108 -0.0930677 -0.0924992 -0.0919322 -0.0913656 -0.0908015 -0.0902384 -0.0896538 -0.0890732 -0.0884904 -0.0879071 -0.0873276 -0.0867298 -0.0861334 -0.0855375 -0.0849437 -0.0843511 -0.0837434 -0.0831395 -0.0825336 -0.0819271 -0.0813244 -0.0807095 -0.080096 -0.0794829 -0.0788718 -0.0782616 -0.0776425 -0.0770268 -0.0764092 -0.0757913 -0.0751766 -0.0745556 -0.0739357 -0.0733163 -0.0726986 -0.0720819 -0.0714615 -0.0708443 -0.0702255 -0.0696063 -0.0689901 -0.0683725 -0.0677562 -0.0671402 -0.0665257 -0.0659122 -0.0652995 -0.0646896 -0.0640784 -0.0634669 -0.062858 -0.062252 -0.0616471 -0.0610425 -0.0604392 -0.0598367 -0.0592391 -0.0586439 -0.0580477 -0.0574512 -0.056857 -0.0562692 -0.0556827 -0.0550963 -0.0545109 -0.0539265 -0.0533501 -0.0527759 -0.0522008 -0.0516255 -0.0510522 -0.0504883 -0.0499256 -0.0493629 -0.0488011 -0.0482402 -0.0476899 -0.0471415 -0.0465924 -0.0460432 -0.0454957 -0.0449599 -0.0444251 -0.0438905 -0.0433564 -0.0428233 -0.0423027 -0.0417838 -0.0412643 -0.0407448 -0.0402268 -0.0397221 -0.0392184 -0.0387149 -0.0382116 -0.0377093 -0.037221 -0.0367341 -0.0362468 -0.0357595 -0.0352735 -0.0348019 -0.0343313 -0.0338608 -0.0333904 -0.032921 -0.0324664 -0.032013 -0.0315595 -0.0311059 -0.0306533 -0.0302159 -0.0297795 -0.0293431 -0.0289067 -0.0284712 -0.028051 -0.0276317 -0.0272125 -0.0267933 -0.0263749 -0.0259719 -0.0255699 -0.0251678 -0.0247656 -0.0243643 -0.0239783 -0.0235933 -0.0232083 -0.0228233 -0.0224394 -0.0220703 -0.0217027 -0.021335 -0.0209672 -0.0206006 -0.0202486 -0.019898 -0.0195474 -0.019197 -0.0188476 -0.0185122 -0.0181783 -0.0178444 -0.0175105 -0.0171777 -0.0168591 -0.0165414 -0.0162237 -0.0159059 -0.0155892 -0.0152868 -0.0149848 -0.0146828 -0.0143806 -0.0140788 -0.0137923 -0.0135054 -0.0132187 -0.012932 -0.0126451 -0.0123738 -0.0121022 -0.0118304 -0.0115584 -0.0112861 -0.0110291 -0.0107717 -0.0105147 -0.0102577 -0.0100002 -0.00975741 -0.00951472 -0.00927195 -0.00902884 -0.00878592 -0.00855694 -0.00832759 -0.00809865 -0.00786979 -0.00764045 -0.00742477 -0.00720925 -0.00699362 -0.00677749 -0.00656163 -0.00635854 -0.00615515 -0.00595229 -0.00574954 -0.0055465 -0.00535552 -0.00516515 -0.00497466 -0.00478364 -0.00459315 -0.00441401 -0.00423513 -0.00405665 -0.00387827 -0.00370025 -0.00353224 -0.0033653 -0.00319832 -0.00303117 -0.00286484 -0.00270822 -0.00255211 -0.00239611 -0.00224013 -0.0020848 -0.0019391 -0.00179352 -0.00164789 -0.00150203 -0.00135646 -0.00122105 -0.00108482 -0.000948979 -0.00081322 -0.000676701 -0.000550736 -0.000424336 -0.000297836 -0.000170884 -4.36446e-05 7.3626e-05 0.000191592 0.000309118 0.000426547 0.000544712 0.000653529 0.000762381 0.00087132 0.000980651 0.00109 0.00119071 0.00129184 0.00139261 0.0014933 0.00159437 0.00168737 0.00178033 0.00187337 0.00196674 0.00206004 0.0021457 0.00223173 0.00231745 0.00240309 0.00248906 0.00256781 0.00264652 0.0027253 0.0028044 0.00288344 0.00295561 0.00302816 0.0031004 0.00317255 0.00324504 0.0033111 0.00337711 0.00344319 0.00350958 0.00357589 0.00363613 0.00369671 0.00375701 0.00381725 0.00387776 0.00393255 0.00398738 0.00404227 0.00409739 0.00415253 0.00420214 0.00425214 0.0043019 0.00435161 0.00440163 0.00444641 0.00449129 0.00453622 0.00458139 0.00462664 0.00466686 0.00470751 0.00474792 0.00478827 0.00482899 0.00486498 0.00490112 0.0049373 0.00497372 0.00501025 0.00504225 0.00507471 0.00510695 0.00513913 0.00517171 0.00520003 0.00522854 0.00525709 0.00528585 0.00531478 0.00533963 0.00536495 0.00539007 0.00541514 0.00544062 0.00546229 0.00548417 0.00550609 0.00552821 0.00555052 0.00556919 0.00558833 0.00560729 0.00562621 0.00564554 0.00566147 0.00567765 0.00569386 0.00571026 0.00572688 0.00574024 0.00575409 0.00576777 0.00578141 0.00579549 0.00580651 0.00581782 0.00582916 0.00584066 0.00585243 0.00586126 0.00587061 0.00587979 0.00588895 0.00589856 0.00590542 0.00591259 0.00591981 0.00592716 0.00593482 0.00593984 0.00594538 0.00595078 0.00595615 0.005962 0.00596538 0.0059691 0.00597286 0.00597674 0.00598097 0.00598281 0.00598519 0.00598745 0.00598968 0.0059924 0.00599289 0.00599376 0.00599466 0.00599567 0.00599705 0.00599627 0.00599604 0.00599571 0.00599534 0.00599549 0.0059936 0.00599214 0.00599071 0.00598938 0.00598846 0.00598559 0.00598328 0.00598086 0.00597842 0.0059765 0.00597276 0.00596945 0.00596615 0.00596296 0.00596018 0.00595566 0.00595169 0.00594763 0.00594355 0.00593999 0.00593482 0.00593008 0.00592537 0.00592074 0.00591654 0.00591078 0.00590559 0.00590032 0.00589503 0.00589026 0.00588405 0.00587829 0.00587255 0.00586689 0.00586168 0.00585506 0.00584901 0.0058429 0.00583676 0.00583116 0.00582426 0.00581784 0.00581142 0.00580508 0.00579921 0.00579207 0.00578551 0.00577888 0.00577224 0.00576615 0.00575889 0.00575212 0.00574536 0.00573865 0.00573245 0.0057251 0.00571833 0.00571151 0.00570467 0.0056984 0.00569107 0.00568425 0.00567744 0.00567067 0.00566443 0.00565715 0.00565046 0.00564372 0.00563698 0.0056308 0.00562368 0.00561708 0.00561049 0.00560393 0.00559792 0.00559097 0.00558462 0.00557823 0.00557184 0.00556603 0.00555935 0.00555323 0.00554711 0.00554101 0.00553548 0.0055291 0.00552332 0.00551752 0.00551172 0.00550651 0.00550051 0.00549508 0.00548965 0.00548423 0.00547941 0.00547379 0.00546878 0.00546377 0.00545876 0.00545436 0.00544918 0.00544464 0.00544008 0.00543549 0.00543156 0.00542679 0.00542263 0.00541854 0.00541447 0.00541101 0.00540664 0.00540304 0.00539941 0.00539561 0.00539263 0.00538846 0.00538487 0.00538163 0.00537848 0.00537591 0.00537158 0.00536876 0.00536576 0.00536198 0.0053597 0.00535437 0.00534911 0.00534611 0.00534365 0.00534121 0.00533216 0.00533042 0.0053275 0.00531955 0.00531851 0.00530419 0.00527961 0.00527509 0.00527531 0.00526457 0.00522166 0.00523323 0.0052436 0.00524887 0.00531697 0.00541042 0.00547397 0.00553754 0.00557551 0.0055292 0.00550997 0.00550292 0.00549588 0.00548837 0.00549237 0.0055099 0.00552806 0.00554622 0.00555791 0.00556917 0.00557022 0.00557127 0.00557232 0.00557325 0.00557394 0.00559877 0.00562771 0.00565675 0.00568578 0.00565915 0.0056973 0.00575993 0.00582294 0.00588595 0.00596594 0.00618021 0.00626921 0.00635167 0.00642777 0.00632084 0.0063567 0.00633731 0.00632086 0.00631139 0.00625602 0.00620947 0.0059879 0.00576634 0.00553219 0.00503859 0.00469897 0.00420509 0.00371121 0.00321465 0.00259585 0.00241422 0.00213691 0.00185961 0.00158231 0.00124251 0.00122341 0.00111838 0.00101336 0.000908335 0.000751165 0.000715169 0.000603699 0.00049223 0.00038076 0.000206758