# vtk DataFile Version 2.0
track0
ASCII
DATASET POLYDATA
POINTS 15780 float
-1.001 -0.05 0.0011
-1.0008 -0.05 0.0011
-1.0006 -0.05 0.0011
-1.0004 -0.05 0.0011
-1.0002 -0.05 0.0011
-1 -0.05 0.0011
-0.9875 -0.05 0.0011
-0.975 -0.05 0.0011
-0.9625 -0.05 0.0011
-0.95 -0.05 0.0011
-0.9375 -0.05 0.00109999
-0.925 -0.05 0.00109999
-0.9125 -0.05 0.00109999
-0.9 -0.05 0.00109999
-0.8875 -0.05 0.00109999
-0.875 -0.05 0.00109999
-0.8625 -0.05 0.00109999
-0.85 -0.05 0.00109999
-0.8375 -0.05 0.00109998
-0.825 -0.0500001 0.00109998
-0.8125 -0.0500001 0.00109998
-0.8 -0.0500001 0.00109998
-0.7875 -0.0500001 0.00109998
-0.775 -0.0500001 0.00109998
-0.7625 -0.0500001 0.00109998
-0.75 -0.0500001 0.00109998
-0.7375 -0.0500001 0.00109997
-0.725 -0.0500001 0.00109997
-0.7125 -0.0500001 0.00109997
-0.7 -0.0500001 0.00109997
-0.6875 -0.0500001 0.00109997
-0.675 -0.0500001 0.00109997
-0.6625 -0.0500001 0.00109997
-0.65 -0.0500001 0.00109996
-0.6375 -0.0500001 0.00109996
-0.625 -0.0500001 0.00109996
-0.6125 -0.0500001 0.00109996
-0.6 -0.0500001 0.00109996
-0.5875 -0.0500001 0.00109996
-0.575 -0.0500001 0.00109996
-0.5625 -0.0500001 0.00109996
-0.55 -0.0500001 0.00109995
-0.5375 -0.0500001 0.00109995
-0.525 -0.0500001 0.00109995
-0.5125 -0.0500001 0.00109995
-0.5 -0.0500001 0.00109995
-0.4875 -0.0500001 0.00109995
-0.475 -0.0500001 0.00109995
-0.4625 -0.0500001 0.00109994
-0.45 -0.0500002 0.00109994
-0.4375 -0.0500002 0.00109994
-0.425 -0.0500002 0.00109994
-0.4125 -0.0500002 0.00109994
-0.4 -0.0500002 0.00109994
-0.3875 -0.0500002 0.00109994
-0.375 -0.0500002 0.00109994
-0.3625 -0.0500002 0.00109993
-0.35 -0.0500002 0.00109993
-0.3375 -0.0500002 0.00109993
-0.325 -0.0500002 0.00109993
-0.3125 -0.0500002 0.00109993
-0.3 -0.0500002 0.00109993
-0.2875 -0.0500002 0.00109993
-0.275 -0.0500002 0.00109993
-0.2625 -0.0500002 0.00109992
-0.25 -0.0500002 0.00109992
-0.2375 -0.0500002 0.00109992
-0.225 -0.0500002 0.00109992
-0.2125 -0.0500002 0.00109992
-0.2 -0.0500002 0.00109992
-0.1875 -0.0500002 0.00109992
-0.175 -0.0500002 0.00109992
-0.1625 -0.0500002 0.00109991
-0.15 -0.0500002 0.00109991
-0.1375 -0.0500002 0.00109991
-0.125 -0.0500002 0.00109991
-0.1125 -0.0500002 0.00109991
-0.1 -0.0500002 0.00109991
-0.0875 -0.0500002 0.00109991
-0.075 -0.0500002 0.00109991
-0.0625 -0.0500002 0.00109991
-0.05 -0.0500003 0.00109991
-0.0375 -0.0500003 0.0010999
-0.025 -0.0500003 0.0010999
-0.0125 -0.0500003 0.0010999
2.10607e-13 -0.0500003 0.0010999
0.0125 -0.0500003 0.0010999
0.025 -0.0500003 0.0010999
0.0375 -0.0500003 0.0010999
0.05 -0.0500003 0.0010999
0.0625 -0.0500003 0.0010999
0.075 -0.0500003 0.0010999
0.0875 -0.0500003 0.0010999
0.1 -0.0500003 0.00109989
0.1125 -0.0500003 0.00109989
0.125 -0.0500003 0.00109989
0.1375 -0.0500003 0.00109989
0.15 -0.0500003 0.00109989
0.1625 -0.0500003 0.00109989
0.175 -0.0500003 0.00109989
0.1875 -0.0500003 0.00109989
0.2 -0.0500003 0.00109989
0.2125 -0.0500003 0.00109989
0.225 -0.0500003 0.00109989
0.2375 -0.0500003 0.00109989
0.25 -0.0500003 0.00109989
0.2625 -0.0500003 0.00109988
0.275 -0.0500003 0.00109988
0.2875 -0.0500003 0.00109988
0.3 -0.0500003 0.00109988
0.3125 -0.0500003 0.00109988
0.325 -0.0500003 0.00109988
0.3375 -0.0500003 0.00109988
0.35 -0.0500003 0.00109988
0.3625 -0.0500003 0.00109988
0.375 -0.0500003 0.00109988
0.3875 -0.0500003 0.00109988
0.4 -0.0500004 0.00109988
0.4125 -0.0500004 0.00109988
0.425 -0.0500004 0.00109988
0.4375 -0.0500004 0.00109988
0.45 -0.0500004 0.00109988
0.4625 -0.0500004 0.00109988
0.475 -0.0500004 0.00109988
0.4875 -0.0500004 0.00109988
0.5 -0.0500004 0.00109988
0.5125 -0.0500004 0.00109988
0.525 -0.0500004 0.00109988
0.5375 -0.0500004 0.00109988
0.55 -0.0500004 0.00109988
0.5625 -0.0500004 0.00109988
0.575 -0.0500004 0.00109987
0.5875 -0.0500004 0.00109987
0.6 -0.0500004 0.00109987
0.6125 -0.0500004 0.00109987
0.625 -0.0500004 0.00109987
0.6375 -0.0500004 0.00109987
0.65 -0.0500004 0.00109987
0.6625 -0.0500004 0.00109987
0.675 -0.0500004 0.00109987
0.6875 -0.0500004 0.00109987
0.7 -0.0500004 0.00109987
0.7125 -0.0500004 0.00109987
0.725 -0.0500004 0.00109987
0.7375 -0.0500004 0.00109987
0.75 -0.0500004 0.00109987
0.7625 -0.0500004 0.00109987
0.775 -0.0500004 0.00109987
0.7875 -0.0500004 0.00109987
0.8 -0.0500004 0.00109987
0.8125 -0.0500004 0.00109987
0.825 -0.0500004 0.00109987
0.8375 -0.0500004 0.00109987
0.85 -0.0500004 0.00109987
0.8625 -0.0500004 0.00109987
0.875 -0.0500004 0.00109987
0.8875 -0.0500004 0.00109987
0.9 -0.0500004 0.00109987
0.9125 -0.0500005 0.00109988
0.925 -0.0500005 0.00109988
0.9375 -0.0500005 0.00109988
0.95 -0.0500005 0.00109988
0.9625 -0.0500005 0.00109988
0.975 -0.0500005 0.00109988
0.9875 -0.0500005 0.00109988
1 -0.0500005 0.00109988
1.0125 -0.0500005 0.00109988
1.025 -0.0500005 0.00109988
1.0375 -0.0500005 0.00109988
1.05 -0.0500005 0.00109988
1.0625 -0.0500005 0.00109988
1.075 -0.0500005 0.00109988
1.0875 -0.0500005 0.00109988
1.1 -0.0500005 0.00109988
1.1125 -0.0500005 0.00109988
1.125 -0.0500005 0.00109988
1.1375 -0.0500005 0.00109988
1.15 -0.0500005 0.00109988
1.1625 -0.0500005 0.00109988
1.175 -0.0500005 0.00109988
1.1875 -0.0500005 0.00109988
1.2 -0.0500005 0.00109988
1.2125 -0.0500005 0.00109988
1.225 -0.0500005 0.00109988
1.2375 -0.0500005 0.00109989
1.25 -0.0500005 0.00109989
1.2625 -0.0500005 0.00109989
1.275 -0.0500005 0.00109989
1.2875 -0.0500005 0.00109989
1.3 -0.0500005 0.00109989
1.3125 -0.0500005 0.00109989
1.325 -0.0500005 0.00109989
1.3375 -0.0500005 0.00109989
1.35 -0.0500005 0.00109989
1.3625 -0.0500005 0.00109989
1.375 -0.0500005 0.00109989
1.3875 -0.0500005 0.00109989
1.4 -0.0500005 0.00109989
1.4125 -0.0500005 0.00109989
1.425 -0.0500005 0.00109989
1.4375 -0.0500005 0.0010999
1.45 -0.0500005 0.0010999
1.4625 -0.0500005 0.0010999
1.475 -0.0500005 0.0010999
1.4875 -0.0500005 0.0010999
1.5 -0.0500006 0.0010999
1.5125 -0.0500006 0.0010999
1.525 -0.0500006 0.0010999
1.5375 -0.0500006 0.0010999
1.55 -0.0500006 0.0010999
1.5625 -0.0500006 0.0010999
1.575 -0.0500006 0.0010999
1.5875 -0.0500006 0.0010999
1.6 -0.0500006 0.0010999
1.6125 -0.0500006 0.00109991
1.625 -0.0500006 0.00109991
1.6375 -0.0500006 0.00109991
1.65 -0.0500006 0.00109991
1.6625 -0.0500006 0.00109991
1.675 -0.0500006 0.00109991
1.6875 -0.0500006 0.00109991
1.7 -0.0500006 0.00109991
1.7125 -0.0500006 0.00109991
1.725 -0.0500006 0.00109991
1.7375 -0.0500006 0.00109991
1.75 -0.0500006 0.00109991
1.7625 -0.0500006 0.00109992
1.775 -0.0500006 0.00109992
1.7875 -0.0500006 0.00109992
1.8 -0.0500006 0.00109992
1.8125 -0.0500006 0.00109992
1.825 -0.0500006 0.00109992
1.8375 -0.0500006 0.00109992
1.85 -0.0500006 0.00109992
1.8625 -0.0500006 0.00109992
1.875 -0.0500006 0.00109992
1.8875 -0.0500006 0.00109992
1.9 -0.0500006 0.00109992
1.9125 -0.0500006 0.00109993
1.925 -0.0500006 0.00109993
1.9375 -0.0500006 0.00109993
1.95 -0.0500006 0.00109993
1.9625 -0.0500006 0.00109993
1.975 -0.0500006 0.00109993
1.9875 -0.0500006 0.00109993
2 -0.0500006 0.00109993
2.0125 -0.0500006 0.00109993
2.025 -0.0500006 0.00109993
2.0375 -0.0500006 0.00109993
2.05 -0.0500006 0.00109993
2.0625 -0.0500006 0.00109993
2.075 -0.0500006 0.00109994
2.0875 -0.0500006 0.00109994
2.1 -0.0500006 0.00109994
2.1125 -0.0500006 0.00109994
2.125 -0.0500006 0.00109994
2.1375 -0.0500006 0.00109994
2.15 -0.0500006 0.00109994
2.1625 -0.0500006 0.00109994
2.175 -0.0500007 0.00109994
2.1875 -0.0500007 0.00109994
2.2 -0.0500007 0.00109994
2.2125 -0.0500007 0.00109994
2.225 -0.0500007 0.00109995
2.2375 -0.0500007 0.00109995
2.25 -0.0500007 0.00109995
2.2625 -0.0500007 0.00109995
2.275 -0.0500007 0.00109995
2.2875 -0.0500007 0.00109995
2.3 -0.0500007 0.00109995
2.3125 -0.0500007 0.00109995
2.325 -0.0500007 0.00109995
2.3375 -0.0500007 0.00109995
2.35 -0.0500007 0.00109995
2.3625 -0.0500007 0.00109995
2.375 -0.0500007 0.00109995
2.3875 -0.0500007 0.00109996
2.4 -0.0500007 0.00109996
2.4125 -0.0500007 0.00109996
2.425 -0.0500007 0.00109996
2.4375 -0.0500007 0.00109996
2.45 -0.0500007 0.00109996
2.4625 -0.0500007 0.00109996
2.475 -0.0500007 0.00109996
2.4875 -0.0500007 0.00109996
2.5 -0.0500007 0.00109996
2.5125 -0.0500007 0.00109996
2.525 -0.0500007 0.00109996
2.5375 -0.0500007 0.00109996
2.55 -0.0500007 0.00109996
2.5625 -0.0500007 0.00109997
2.575 -0.0500007 0.00109997
2.5875 -0.0500007 0.00109997
2.6 -0.0500007 0.00109997
2.6125 -0.0500007 0.00109997
2.625 -0.0500007 0.00109997
2.6375 -0.0500007 0.00109997
2.65 -0.0500007 0.00109997
2.6625 -0.0500007 0.00109997
2.675 -0.0500007 0.00109997
2.6875 -0.0500007 0.00109997
2.7 -0.0500007 0.00109997
2.7125 -0.0500007 0.00109997
2.725 -0.0500007 0.00109997
2.7375 -0.0500007 0.00109997
2.75 -0.0500007 0.00109997
2.7625 -0.0500007 0.00109998
2.775 -0.0500007 0.00109998
2.7875 -0.0500007 0.00109998
2.8 -0.0500007 0.00109998
2.8125 -0.0500007 0.00109998
2.825 -0.0500007 0.00109998
2.8375 -0.0500007 0.00109998
2.85 -0.0500007 0.00109998
2.8625 -0.0500008 0.00109998
2.875 -0.0500008 0.00109998
2.8875 -0.0500008 0.00109998
2.9 -0.0500008 0.00109998
2.9125 -0.0500008 0.00109998
2.925 -0.0500008 0.00109998
2.9375 -0.0500008 0.00109998
2.95 -0.0500008 0.00109998
2.9625 -0.0500008 0.00109998
2.975 -0.0500008 0.00109998
2.9875 -0.0500008 0.00109998
3 -0.0500008 0.00109998
3.0125 -0.0500008 0.00109999
3.025 -0.0500008 0.00109999
3.0375 -0.0500008 0.00109999
3.05 -0.0500008 0.00109999
3.0625 -0.0500008 0.00109999
3.075 -0.0500008 0.00109999
3.0875 -0.0500008 0.00109999
3.1 -0.0500008 0.00109999
3.1125 -0.0500008 0.00109999
3.125 -0.0500008 0.00109999
3.1375 -0.0500008 0.00109999
3.15 -0.0500008 0.00109999
3.1625 -0.0500008 0.00109999
3.175 -0.0500008 0.00109999
3.1875 -0.0500008 0.00109999
3.2 -0.0500008 0.00109999
3.2125 -0.0500008 0.00109999
3.225 -0.0500008 0.00109999
3.2375 -0.0500008 0.00109999
3.25 -0.0500008 0.00109999
3.2625 -0.0500008 0.00109999
3.275 -0.0500008 0.00109999
3.2875 -0.0500008 0.00109999
3.3 -0.0500008 0.00109999
3.3125 -0.0500008 0.00109999
3.325 -0.0500008 0.00109999
3.3375 -0.0500008 0.00109999
3.35 -0.0500008 0.0011
3.3625 -0.0500008 0.0011
[...]
POINT_DATA 15780
 FIELD attributes 1
U 3 15780 float
30.0002 	-7.01784e-06 	-6.30587e-06 30.0002 	-6.84336e-06 	-6.51454e-06 30.0002 	-6.66887e-06 	-6.72321e-06 30.0002 	-6.49439e-06 	-6.93187e-06 30.0002 	-6.3199e-06 	-7.14054e-06 30.0002 	-6.14542e-06 	-7.34921e-06 30.0004 	-1.23851e-05 	-1.261e-06 30.0004 	-1.23851e-05 	-1.261e-06 30.0004 	-1.23851e-05 	-1.261e-06 30.0004 	-1.23851e-05 	-1.261e-06 30.0002 	-7.05062e-08 	-6.84367e-06 30.0005 	-1.0709e-05 	-1.68705e-06 30.0005 	-1.0709e-05 	-1.68705e-06 30.0005 	-1.0709e-05 	-1.68705e-06 30.0005 	-1.0709e-05 	-1.68705e-06 30.0002 	-7.21947e-08 	-6.59608e-06 30.0005 	-9.95846e-06 	-2.08023e-06 30.0005 	-9.95845e-06 	-2.08023e-06 30.0005 	-9.95845e-06 	-2.08023e-06 30.0005 	-9.95844e-06 	-2.08022e-06 30.0003 	-4.59308e-06 	-6.24726e-06 30.0005 	-9.69171e-06 	-2.34896e-06 30.0005 	-9.6917e-06 	-2.34895e-06 30.0005 	-9.69169e-06 	-2.34895e-06 30.0005 	-9.69168e-06 	-2.34895e-06 30.0003 	-7.58058e-08 	-6.57616e-06 30.0005 	-9.52354e-06 	-2.49783e-06 30.0005 	-9.52353e-06 	-2.49783e-06 30.0005 	-9.52353e-06 	-2.49782e-06 30.0005 	-9.52352e-06 	-2.49782e-06 30.0003 	-7.75728e-08 	-6.52627e-06 30.0005 	-9.38719e-06 	-2.55607e-06 30.0005 	-9.38718e-06 	-2.55607e-06 30.0005 	-9.38717e-06 	-2.55607e-06 30.0005 	-9.38716e-06 	-2.55606e-06 30.0003 	-4.26692e-06 	-6.08529e-06 30.0005 	-9.27978e-06 	-2.5583e-06 30.0005 	-9.27977e-06 	-2.5583e-06 30.0005 	-9.27976e-06 	-2.5583e-06 30.0005 	-9.27975e-06 	-2.55829e-06 30.0003 	-4.19933e-06 	-5.9779e-06 30.0006 	-9.1876e-06 	-2.53044e-06 30.0006 	-9.18759e-06 	-2.53043e-06 30.0006 	-9.18758e-06 	-2.53043e-06 30.0006 	-9.18758e-06 	-2.53043e-06 30.0003 	-8.28958e-08 	-6.20127e-06 30.0006 	-9.09754e-06 	-2.48119e-06 30.0006 	-9.09754e-06 	-2.48119e-06 30.0006 	-9.09753e-06 	-2.48118e-06 30.0006 	-9.09752e-06 	-2.48118e-06 30.0003 	-8.46507e-08 	-6.05424e-06 30.0006 	-9.0051e-06 	-2.41362e-06 30.0006 	-9.00509e-06 	-2.41362e-06 30.0006 	-9.00508e-06 	-2.41361e-06 30.0006 	-9.00507e-06 	-2.41361e-06 30.0003 	-8.64057e-08 	-5.88783e-06 30.0006 	-8.90896e-06 	-2.32973e-06 30.0006 	-8.90895e-06 	-2.32973e-06 30.0006 	-8.90894e-06 	-2.32973e-06 30.0006 	-8.90893e-06 	-2.32972e-06 30.0003 	-3.93793e-06 	-5.36348e-06 30.0006 	-8.80892e-06 	-2.23275e-06 30.0006 	-8.80891e-06 	-2.23275e-06 30.0006 	-8.8089e-06 	-2.23275e-06 30.0006 	-8.80889e-06 	-2.23275e-06 30.0003 	-3.86415e-06 	-5.16476e-06 30.0006 	-8.70464e-06 	-2.12414e-06 30.0006 	-8.70464e-06 	-2.12414e-06 30.0006 	-8.70463e-06 	-2.12414e-06 30.0006 	-8.70462e-06 	-2.12414e-06 30.0003 	-9.16699e-08 	-5.28459e-06 30.0006 	-8.59644e-06 	-2.00509e-06 30.0006 	-8.59644e-06 	-2.00508e-06 30.0006 	-8.59643e-06 	-2.00508e-06 30.0006 	-8.59642e-06 	-2.00508e-06 30.0003 	-3.70453e-06 	-4.71941e-06 30.0007 	-8.48506e-06 	-1.87669e-06 30.0007 	-8.48506e-06 	-1.87669e-06 30.0007 	-8.48505e-06 	-1.87669e-06 30.0007 	-8.48505e-06 	-1.87668e-06 30.0003 	-3.61942e-06 	-4.47432e-06 30.0007 	-8.37171e-06 	-1.73884e-06 30.0007 	-8.37171e-06 	-1.73884e-06 30.0007 	-8.3717e-06 	-1.73884e-06 30.0007 	-8.3717e-06 	-1.73884e-06 30.0004 	-9.68697e-08 	-4.5432e-06 30.0007 	-8.26008e-06 	-1.59804e-06 30.0007 	-8.26008e-06 	-1.59804e-06 30.0007 	-8.26007e-06 	-1.59804e-06 30.0007 	-8.26007e-06 	-1.59803e-06 30.0004 	-9.85857e-08 	-4.27125e-06 30.0007 	-8.14807e-06 	-1.46324e-06 30.0007 	-8.14807e-06 	-1.46323e-06 30.0007 	-8.14806e-06 	-1.46323e-06 30.0007 	-8.14806e-06 	-1.46323e-06 30.0004 	-1.00309e-07 	-3.98928e-06 30.0007 	-8.02e-06 	-1.32072e-06 30.0007 	-8.01999e-06 	-1.32072e-06 30.0007 	-8.01999e-06 	-1.32072e-06 30.0007 	-8.01998e-06 	-1.32072e-06 30.0004 	-3.251e-06 	-3.37797e-06 30.0007 	-7.88119e-06 	-1.16801e-06 30.0007 	-7.88119e-06 	-1.16801e-06 30.0007 	-7.88118e-06 	-1.16801e-06 30.0007 	-7.88118e-06 	-1.16801e-06 30.0004 	-1.0372e-07 	-3.40289e-06 30.0007 	-7.74524e-06 	-1.00788e-06 30.0007 	-7.74524e-06 	-1.00788e-06 30.0007 	-7.74523e-06 	-1.00788e-06 30.0007 	-7.74523e-06 	-1.00788e-06 30.0004 	-1.05415e-07 	-3.10328e-06 30.0007 	-7.6111e-06 	-8.41861e-07 30.0007 	-7.61109e-06 	-8.41861e-07 30.0007 	-7.61109e-06 	-8.41861e-07 30.0007 	-7.61109e-06 	-8.41861e-07 30.0004 	-2.9318e-06 	-2.4879e-06 30.0007 	-7.47531e-06 	-6.70207e-07 30.0007 	-7.47531e-06 	-6.70207e-07 30.0007 	-7.47531e-06 	-6.70206e-07 30.0007 	-7.4753e-06 	-6.70206e-07 30.0004 	-2.82532e-06 	-2.18315e-06 30.0007 	-7.34314e-06 	-4.97052e-07 30.0007 	-7.34314e-06 	-4.97052e-07 30.0007 	-7.34314e-06 	-4.97052e-07 30.0007 	-7.34314e-06 	-4.97052e-07 30.0004 	-1.10465e-07 	-2.17113e-06 30.0007 	-7.21532e-06 	-3.17324e-07 30.0007 	-7.21532e-06 	-3.17324e-07 30.0007 	-7.21532e-06 	-3.17324e-07 30.0007 	-7.21532e-06 	-3.17324e-07 30.0004 	-1.12131e-07 	-1.85338e-06 30.0007 	-7.09858e-06 	-1.38221e-07 30.0007 	-7.09858e-06 	-1.38221e-07 30.0007 	-7.09858e-06 	-1.38221e-07 30.0007 	-7.09857e-06 	-1.38221e-07 30.0004 	-1.13782e-07 	-1.54904e-06 30.0007 	-6.98524e-06 	4.08475e-08 30.0007 	-6.98524e-06 	4.08475e-08 30.0007 	-6.98524e-06 	4.08475e-08 30.0007 	-6.98524e-06 	4.08475e-08 30.0004 	-2.43882e-06 	-9.58533e-07 30.0007 	-6.87163e-06 	2.1466e-07 30.0007 	-6.87163e-06 	2.14661e-07 30.0007 	-6.87163e-06 	2.14661e-07 30.0007 	-6.87163e-06 	2.14661e-07 30.0004 	-2.3472e-06 	-6.82332e-07 30.0007 	-6.75342e-06 	3.90709e-07 30.0007 	-6.75342e-06 	3.90709e-07 30.0007 	-6.75342e-06 	3.90709e-07 30.0007 	-6.75342e-06 	3.90709e-07 30.0004 	-1.18703e-07 	-7.09794e-07 30.0007 	-6.64288e-06 	5.64361e-07 30.0007 	-6.64288e-06 	5.64361e-07 30.0007 	-6.64288e-06 	5.64361e-07 30.0007 	-6.64288e-06 	5.64362e-07 30.0004 	-2.16682e-06 	-1.45477e-07 30.0007 	-6.53589e-06 	7.2739e-07 30.0007 	-6.53589e-06 	7.2739e-07 30.0007 	-6.53589e-06 	7.27391e-07 30.0007 	-6.53589e-06 	7.27391e-07 30.0004 	-2.08115e-06 	1.13799e-07 30.0007 	-6.43056e-06 	8.78828e-07 30.0007 	-6.43057e-06 	8.78829e-07 30.0007 	-6.43057e-06 	8.78829e-07 30.0007 	-6.43057e-06 	8.78829e-07 30.0004 	-1.23581e-07 	7.05462e-08 30.0007 	-6.32293e-06 	1.01778e-06 30.0007 	-6.32293e-06 	1.01778e-06 30.0007 	-6.32293e-06 	1.01778e-06 30.0007 	-6.32293e-06 	1.01778e-06 30.0004 	-1.25157e-07 	3.15773e-07 30.0007 	-6.21656e-06 	1.14061e-06 30.0007 	-6.21656e-06 	1.14061e-06 30.0007 	-6.21656e-06 	1.14061e-06 30.0007 	-6.21657e-06 	1.14061e-06 30.0004 	-1.26743e-07 	5.45491e-07 30.0007 	-6.1153e-06 	1.25631e-06 30.0007 	-6.11531e-06 	1.25631e-06 30.0007 	-6.11531e-06 	1.25631e-06 30.0007 	-6.11531e-06 	1.25631e-06 30.0004 	-1.76432e-06 	1.03204e-06 30.0007 	-6.02258e-06 	1.37126e-06 30.0007 	-6.02258e-06 	1.37126e-06 30.0007 	-6.02258e-06 	1.37126e-06 30.0007 	-6.02259e-06 	1.37126e-06 30.0004 	-1.29851e-07 	9.36907e-07 30.0007 	-5.94291e-06 	1.48849e-06 30.0007 	-5.94291e-06 	1.48849e-06 30.0007 	-5.94292e-06 	1.48849e-06 30.0007 	-5.94292e-06 	1.48849e-06 30.0004 	-1.3135e-07 	1.10453e-06 30.0007 	-5.8717e-06 	1.59287e-06 30.0007 	-5.87171e-06 	1.59288e-06 30.0007 	-5.87171e-06 	1.59288e-06 30.0007 	-5.87171e-06 	1.59288e-06 30.0004 	-1.59145e-06 	1.53873e-06 30.0007 	-5.8021e-06 	1.6793e-06 30.0007 	-5.8021e-06 	1.6793e-06 30.0007 	-5.80211e-06 	1.67931e-06 30.0007 	-5.80211e-06 	1.67931e-06 30.0003 	-1.54424e-06 	1.67817e-06 30.0007 	-5.734e-06 	1.75009e-06 30.0007 	-5.73401e-06 	1.75009e-06 30.0007 	-5.73401e-06 	1.7501e-06 30.0007 	-5.73401e-06 	1.7501e-06 30.0003 	-1.36064e-07 	1.52469e-06 30.0006 	-5.66887e-06 	1.80979e-06 30.0006 	-5.66887e-06 	1.8098e-06 30.0006 	-5.66888e-06 	1.8098e-06 30.0006 	-5.66888e-06 	1.8098e-06 30.0003 	-1.37623e-07 	1.63223e-06 30.0006 	-5.6088e-06 	1.85993e-06 30.0006 	-5.60881e-06 	1.85993e-06 30.0006 	-5.60881e-06 	1.85993e-06 30.0006 	-5.60882e-06 	1.85993e-06 30.0003 	-1.39098e-07 	1.72396e-06 30.0006 	-5.55452e-06 	1.90042e-06 30.0006 	-5.55452e-06 	1.90042e-06 30.0006 	-5.55453e-06 	1.90042e-06 30.0006 	-5.55453e-06 	1.90043e-06 30.0003 	-1.38894e-06 	2.07099e-06 30.0006 	-5.50569e-06 	1.93108e-06 30.0006 	-5.50569e-06 	1.93108e-06 30.0006 	-5.5057e-06 	1.93108e-06 30.0006 	-5.5057e-06 	1.93109e-06 30.0003 	-1.36191e-06 	2.13093e-06 30.0006 	-5.46193e-06 	1.95182e-06 30.0006 	-5.46193e-06 	1.95182e-06 30.0006 	-5.46194e-06 	1.95182e-06 30.0006 	-5.46194e-06 	1.95182e-06 30.0003 	-1.43141e-07 	1.90822e-06 30.0006 	-5.42314e-06 	1.96277e-06 30.0006 	-5.42314e-06 	1.96277e-06 30.0006 	-5.42315e-06 	1.96277e-06 30.0006 	-5.42315e-06 	1.96277e-06 30.0003 	-1.32353e-06 	2.20762e-06 30.0006 	-5.38918e-06 	1.9643e-06 30.0006 	-5.38919e-06 	1.9643e-06 30.0006 	-5.38919e-06 	1.9643e-06 30.0006 	-5.3892e-06 	1.9643e-06 30.0003 	-1.31175e-06 	2.22551e-06 30.0006 	-5.36001e-06 	1.9569e-06 30.0006 	-5.36001e-06 	1.9569e-06 30.0006 	-5.36002e-06 	1.9569e-06 30.0006 	-5.36002e-06 	1.9569e-06 30.0003 	-1.47023e-07 	1.96613e-06 30.0005 	-5.33549e-06 	1.94111e-06 30.0005 	-5.33549e-06 	1.94111e-06 30.0005 	-5.3355e-06 	1.94111e-06 30.0005 	-5.3355e-06 	1.94111e-06 30.0003 	-1.48272e-07 	1.96053e-06 30.0005 	-5.31551e-06 	1.91792e-06 30.0005 	-5.31551e-06 	1.91792e-06 30.0005 	-5.31551e-06 	1.91792e-06 30.0005 	-5.31552e-06 	1.91792e-06 30.0003 	-1.49492e-07 	1.9442e-06 30.0005 	-5.29993e-06 	1.88799e-06 30.0005 	-5.29993e-06 	1.88799e-06 30.0005 	-5.29994e-06 	1.88799e-06 30.0005 	-5.29994e-06 	1.88799e-06 30.0003 	-1.3092e-06 	2.17897e-06 30.0005 	-5.2886e-06 	1.85189e-06 30.0005 	-5.2886e-06 	1.85189e-06 30.0005 	-5.28861e-06 	1.85189e-06 30.0005 	-5.28861e-06 	1.85189e-06 30.0003 	-1.51854e-07 	1.88226e-06 30.0005 	-5.28132e-06 	1.81007e-06 30.0005 	-5.28133e-06 	1.81007e-06 30.0005 	-5.28133e-06 	1.81007e-06 30.0005 	-5.28133e-06 	1.81007e-06 30.0003 	-1.52976e-07 	1.83814e-06 30.0005 	-5.27789e-06 	1.76315e-06 30.0005 	-5.2779e-06 	1.76315e-06 30.0005 	-5.2779e-06 	1.76315e-06 30.0005 	-5.2779e-06 	1.76315e-06 30.0003 	-1.34844e-06 	2.04406e-06 30.0005 	-5.27808e-06 	1.71161e-06 30.0005 	-5.27808e-06 	1.71162e-06 30.0005 	-5.27808e-06 	1.71162e-06 30.0005 	-5.27809e-06 	1.71162e-06 30.0003 	-1.36851e-06 	1.98422e-06 30.0005 	-5.28164e-06 	1.65598e-06 30.0005 	-5.28164e-06 	1.65598e-06 30.0005 	-5.28164e-06 	1.65599e-06 30.0005 	-5.28165e-06 	1.65599e-06 30.0002 	-1.56203e-07 	1.66278e-06 30.0005 	-5.28844e-06 	1.59667e-06 30.0005 	-5.28845e-06 	1.59667e-06 30.0005 	-5.28845e-06 	1.59667e-06 30.0005 	-5.28845e-06 	1.59668e-06 30.0002 	-1.57263e-07 	1.59253e-06 30.0004 	-5.29841e-06 	1.53415e-06 30.0004 	-5.29842e-06 	1.53415e-06 30.0004 	-5.29842e-06 	1.53415e-06 30.0004 	-5.29842e-06 	1.53415e-06 30.0002 	-1.58346e-07 	1.51767e-06 30.0004 	-5.31137e-06 	1.46889e-06 30.0004 	-5.31138e-06 	1.46889e-06 30.0004 	-5.31138e-06 	1.46889e-06 30.0004 	-5.31138e-06 	1.46889e-06 30.0002 	-1.48018e-06 	1.69061e-06 30.0004 	-5.32693e-06 	1.40144e-06 30.0004 	-5.32693e-06 	1.40144e-06 30.0004 	-5.32694e-06 	1.40144e-06 30.0004 	-5.32694e-06 	1.40144e-06 30.0002 	-1.51471e-06 	1.60712e-06 30.0004 	-5.34481e-06 	1.33219e-06 30.0004 	-5.34481e-06 	1.33219e-06 30.0004 	-5.34481e-06 	1.33219e-06 30.0004 	-5.34482e-06 	1.33219e-06 30.0002 	-1.61605e-07 	1.27185e-06 30.0004 	-5.36482e-06 	1.26148e-06 30.0004 	-5.36482e-06 	1.26148e-06 30.0004 	-5.36483e-06 	1.26148e-06 30.0004 	-5.36483e-06 	1.26148e-06 30.0002 	-1.59003e-06 	1.43249e-06 30.0004 	-5.38665e-06 	1.18981e-06 30.0004 	-5.38665e-06 	1.18981e-06 30.0004 	-5.38666e-06 	1.18981e-06 30.0004 	-5.38666e-06 	1.18981e-06 30.0002 	-1.63051e-06 	1.34241e-06 30.0004 	-5.41028e-06 	1.11749e-06 30.0004 	-5.41028e-06 	1.11749e-06 30.0004 	-5.41028e-06 	1.11749e-06 30.0004 	-5.41028e-06 	1.11749e-06 30.0002 	-1.64613e-07 	1.00608e-06 30.0004 	-5.43535e-06 	1.04481e-06 30.0004 	-5.43535e-06 	1.04481e-06 30.0004 	-5.43535e-06 	1.04481e-06 30.0004 	-5.43535e-06 	1.04481e-06 30.0002 	-1.65544e-07 	9.15607e-07 30.0004 	-5.46102e-06 	9.72273e-07 30.0004 	-5.46102e-06 	9.72273e-07 30.0004 	-5.46102e-06 	9.72274e-07 30.0004 	-5.46102e-06 	9.72274e-07 30.0002 	-1.6645e-07 	8.24987e-07 30.0004 	-5.48709e-06 	8.99497e-07 30.0004 	-5.48709e-06 	8.99497e-07 30.0004 	-5.48709e-06 	8.99498e-07 30.0004 	-5.48709e-06 	8.99498e-07 30.0002 	-1.80741e-06 	9.75418e-07 30.0004 	-5.51389e-06 	8.25963e-07 30.0004 	-5.51389e-06 	8.25963e-07 30.0004 	-5.51389e-06 	8.25963e-07 30.0004 	-5.51389e-06 	8.25963e-07 30.0002 	-1.68164e-07 	6.43621e-07 30.0003 	-5.54363e-06 	7.52002e-07 30.0003 	-5.54363e-06 	7.52002e-07 30.0003 	-5.54363e-06 	7.52003e-07 30.0003 	-5.54363e-06 	7.52003e-07 30.0002 	-1.68982e-07 	5.52628e-07 30.0003 	-5.57812e-06 	6.77458e-07 30.0003 	-5.57812e-06 	6.77458e-07 30.0003 	-5.57812e-06 	6.77458e-07 30.0003 	-5.57813e-06 	6.77459e-07 30.0002 	-1.95578e-06 	7.01314e-07 30.0003 	-5.61499e-06 	6.04396e-07 30.0003 	-5.61499e-06 	6.04396e-07 30.0003 	-5.61499e-06 	6.04396e-07 30.0003 	-5.61499e-06 	6.04396e-07 30.0002 	-2.00797e-06 	6.11684e-07 30.0003 	-5.65104e-06 	5.34676e-07 30.0003 	-5.65105e-06 	5.34676e-07 30.0003 	-5.65105e-06 	5.34677e-07 30.0003 	-5.65105e-06 	5.34677e-07 30.0002 	-1.71467e-07 	2.80937e-07 30.0003 	-5.68215e-06 	4.67653e-07 30.0003 	-5.68215e-06 	4.67653e-07 30.0003 	-5.68215e-06 	4.67653e-07 30.0003 	-5.68216e-06 	4.67653e-07 30.0002 	-1.72295e-07 	1.97323e-07 30.0003 	-5.71059e-06 	4.03207e-07 30.0003 	-5.71059e-06 	4.03207e-07 30.0003 	-5.71059e-06 	4.03207e-07 30.0003 	-5.71059e-06 	4.03207e-07 30.0002 	-1.73097e-07 	1.16393e-07 30.0003 	-5.73877e-06 	3.39246e-07 30.0003 	-5.73877e-06 	3.39246e-07 30.0003 	-5.73877e-06 	3.39246e-07 30.0003 	-5.73877e-06 	3.39246e-07 30.0002 	-2.20123e-06 	2.74087e-07 30.0003 	-5.76675e-06 	2.75279e-07 30.0003 	-5.76675e-06 	2.75279e-07 30.0003 	-5.76675e-06 	2.75279e-07 30.0003 	-5.76675e-06 	2.75279e-07 30.0002 	-2.24815e-06 	1.96344e-07 30.0003 	-5.79344e-06 	2.1079e-07 30.0003 	-5.79344e-06 	2.1079e-07 30.0003 	-5.79344e-06 	2.1079e-07 30.0003 	-5.79344e-06 	2.1079e-07 30.0002 	-1.75247e-07 	-1.09154e-07 30.0003 	-5.82143e-06 	1.48779e-07 30.0003 	-5.82143e-06 	1.48779e-07 30.0003 	-5.82143e-06 	1.48779e-07 30.0003 	-5.82143e-06 	1.48779e-07 30.0002 	-2.3419e-06 	4.4661e-08 30.0003 	-5.85069e-06 	8.99855e-08 30.0003 	-5.85069e-06 	8.99855e-08 30.0003 	-5.85069e-06 	8.99855e-08 30.0003 	-5.85069e-06 	8.99855e-08 30.0002 	-2.38921e-06 	-2.91136e-08 30.0003 	-5.88111e-06 	3.48146e-08 30.0003 	-5.88111e-06 	3.48146e-08 30.0003 	-5.88111e-06 	3.48146e-08 30.0003 	-5.88111e-06 	3.48146e-08 30.0002 	-1.7723e-07 	-3.30783e-07 30.0003 	-5.91279e-06 	-1.70748e-08 30.0003 	-5.91279e-06 	-1.70748e-08 30.0003 	-5.91279e-06 	-1.70748e-08 30.0003 	-5.91279e-06 	-1.70748e-08 30.0002 	-1.77843e-07 	-4.01818e-07 30.0003 	-5.94592e-06 	-6.90556e-08 30.0003 	-5.94592e-06 	-6.90556e-08 30.0003 	-5.94592e-06 	-6.90556e-08 30.0003 	-5.94592e-06 	-6.90556e-08 30.0002 	-1.7845e-07 	-4.67089e-07 30.0003 	-5.97789e-06 	-1.23316e-07 30.0003 	-5.97789e-06 	-1.23316e-07 30.0003 	-5.97789e-06 	-1.23316e-07 30.0003 	-5.97789e-06 	-1.23316e-07 30.0002 	-2.58072e-06 	-3.01388e-07 30.0003 	-6.00567e-06 	-1.77961e-07 30.0003 	-6.00567e-06 	-1.77961e-07 30.0003 	-6.00567e-06 	-1.77961e-07 30.0003 	-6.00567e-06 	-1.77961e-07 30.0002 	-1.79637e-07 	-5.84902e-07 30.0003 	-6.02979e-06 	-2.2922e-07 30.0003 	-6.02979e-06 	-2.2922e-07 30.0003 	-6.02979e-06 	-2.2922e-07 30.0003 	-6.02979e-06 	-2.2922e-07 30.0002 	-1.80228e-07 	-6.42165e-07 30.0003 	-6.05304e-06 	-2.76183e-07 30.0003 	-6.05304e-06 	-2.76183e-07 30.0003 	-6.05304e-06 	-2.76183e-07 30.0003 	-6.05304e-06 	-2.76183e-07 30.0002 	-2.70879e-06 	-4.78989e-07 30.0003 	-6.0769e-06 	-3.19661e-07 30.0003 	-6.0769e-06 	-3.19661e-07 30.0003 	-6.0769e-06 	-3.19661e-07 30.0003 	-6.0769e-06 	-3.19661e-07 30.0002 	-2.74982e-06 	-5.34033e-07 30.0003 	-6.10112e-06 	-3.61198e-07 30.0003 	-6.10112e-06 	-3.61198e-07 30.0003 	-6.10112e-06 	-3.61198e-07 30.0003 	-6.10112e-06 	-3.61198e-07 30.0002 	-1.81974e-07 	-8.03805e-07 30.0003 	-6.12516e-06 	-4.01395e-07 30.0003 	-6.12516e-06 	-4.01395e-07 30.0003 	-6.12516e-06 	-4.01394e-07 30.0003 	-6.12516e-06 	-4.01394e-07 30.0001 	-1.82528e-07 	-8.53124e-07 30.0003 	-6.14858e-06 	-4.40389e-07 30.0003 	-6.14857e-06 	-4.40389e-07 30.0003 	-6.14857e-06 	-4.40389e-07 30.0003 	-6.14857e-06 	-4.40389e-07 30.0001 	-1.8307e-07 	-9.00333e-07 30.0003 	-6.17124e-06 	-4.78006e-07 30.0003 	-6.17124e-06 	-4.78006e-07 30.0003 	-6.17124e-06 	-4.78006e-07 30.0003 	-6.17124e-06 	-4.78006e-07 30.0001 	-2.90933e-06 	-7.31462e-07 30.0003 	-6.19304e-06 	-5.14222e-07 30.0003 	-6.19304e-06 	-5.14222e-07 30.0003 	-6.19304e-06 	-5.14222e-07 30.0003 	-6.19304e-06 	-5.14222e-07 30.0001 	-2.94721e-06 	-7.75589e-07 30.0003 	-6.21395e-06 	-5.48847e-07 30.0003 	-6.21394e-06 	-5.48847e-07 30.0003 	-6.21394e-06 	-5.48847e-07 30.0003 	-6.21394e-06 	-5.48847e-07 30.0001 	-1.84598e-07 	-1.02955e-06 30.0003 	-6.23404e-06 	-5.82063e-07 30.0003 	-6.23404e-06 	-5.82063e-07 30.0003 	-6.23404e-06 	-5.82063e-07 30.0003 	-6.23404e-06 	-5.82063e-07 30.0001 	-3.02021e-06 	-8.57475e-07 30.0003 	-6.25333e-06 	-6.13902e-07 30.0003 	-6.25333e-06 	-6.13902e-07 30.0003 	-6.25332e-06 	-6.13902e-07 30.0003 	-6.25332e-06 	-6.13902e-07 30.0001 	-3.05531e-06 	-8.95482e-07 30.0003 	-6.27182e-06 	-6.44427e-07 30.0003 	-6.27182e-06 	-6.44427e-07 30.0003 	-6.27182e-06 	-6.44427e-07 30.0003 	-6.27182e-06 	-6.44427e-07 30.0001 	-1.86036e-07 	-1.14086e-06 30.0003 	-6.28954e-06 	-6.73626e-07 30.0003 	-6.28954e-06 	-6.73625e-07 30.0003 	-6.28954e-06 	-6.73625e-07 30.0003 	-6.28953e-06 	-6.73625e-07 30.0001 	-1.86488e-07 	-1.17462e-06 30.0003 	-6.30657e-06 	-7.01442e-07 30.0003 	-6.30657e-06 	-7.01442e-07 30.0003 	-6.30657e-06 	-7.01442e-07 30.0003 	-6.30657e-06 	-7.01441e-07 30.0001 	-1.86941e-07 	-1.2067e-06 30.0003 	-6.32266e-06 	-7.27869e-07 30.0003 	-6.32266e-06 	-7.27869e-07 30.0003 	-6.32266e-06 	-7.27869e-07 30.0003 	-6.32265e-06 	-7.27869e-07 30.0001 	-3.18677e-06 	-1.031e-06 30.0003 	-6.33793e-06 	-7.52981e-07 30.0003 	-6.33793e-06 	-7.52981e-07 30.0003 	-6.33792e-06 	-7.5298e-07 30.0003 	-6.33792e-06 	-7.5298e-07 30.0001 	-1.87812e-07 	-1.26598e-06 30.0003 	-6.35245e-06 	-7.76949e-07 30.0003 	-6.35245e-06 	-7.76949e-07 30.0003 	-6.35245e-06 	-7.76948e-07 30.0003 	-6.35245e-06 	-7.76948e-07 30.0001 	-1.8823e-07 	-1.29334e-06 30.0003 	-6.36628e-06 	-7.99819e-07 30.0003 	-6.36627e-06 	-7.99818e-07 30.0003 	-6.36627e-06 	-7.99818e-07 30.0003 	-6.36627e-06 	-7.99818e-07 30.0001 	-3.27618e-06 	-1.11605e-06 30.0003 	-6.37937e-06 	-8.21545e-07 30.0003 	-6.37937e-06 	-8.21545e-07 30.0003 	-6.37937e-06 	-8.21544e-07 30.0003 	-6.37936e-06 	-8.21544e-07 30.0001 	-3.3043e-06 	-1.14152e-06 30.0003 	-6.39168e-06 	-8.41981e-07 30.0003 	-6.39167e-06 	-8.41981e-07 30.0003 	-6.39167e-06 	-8.41981e-07 30.0003 	-6.39167e-06 	-8.4198e-07 30.0001 	-1.89444e-07 	-1.36688e-06 30.0003 	-6.40332e-06 	-8.61372e-07 30.0003 	-6.40331e-06 	-8.61372e-07 30.0003 	-6.40331e-06 	-8.61371e-07 30.0003 	-6.40331e-06 	-8.61371e-07 30.0001 	-1.89835e-07 	-1.38875e-06 30.0003 	-6.41427e-06 	-8.79809e-07 30.0003 	-6.41427e-06 	-8.79809e-07 30.0003 	-6.41427e-06 	-8.79809e-07 30.0003 	-6.41427e-06 	-8.79808e-07 30.0001 	-1.90219e-07 	-1.4094e-06 30.0003 	-6.42453e-06 	-8.9729e-07 30.0003 	-6.42453e-06 	-8.9729e-07 30.0003 	-6.42452e-06 	-8.9729e-07 30.0003 	-6.42452e-06 	-8.9729e-07 30.0001 	-3.40863e-06 	-1.23052e-06 30.0003 	-6.43411e-06 	-9.13876e-07 30.0003 	-6.43411e-06 	-9.13876e-07 30.0003 	-6.43411e-06 	-9.13876e-07 30.0003 	-6.43411e-06 	-9.13875e-07 30.0001 	-3.43276e-06 	-1.24985e-06 30.0003 	-6.44301e-06 	-9.29562e-07 30.0003 	-6.44301e-06 	-9.29561e-07 30.0003 	-6.44301e-06 	-9.29561e-07 30.0003 	-6.443e-06 	-9.29561e-07 30.0001 	-1.91318e-07 	-1.46457e-06 30.0003 	-6.4513e-06 	-9.44414e-07 30.0003 	-6.45129e-06 	-9.44413e-07 30.0003 	-6.45129e-06 	-9.44413e-07 30.0003 	-6.45129e-06 	-9.44413e-07 30.0001 	-3.47884e-06 	-1.28534e-06 30.0003 	-6.45898e-06 	-9.58415e-07 30.0003 	-6.45898e-06 	-9.58415e-07 30.0003 	-6.45898e-06 	-9.58415e-07 30.0003 	-6.45898e-06 	-9.58414e-07 30.0001 	-3.50089e-06 	-1.3016e-06 30.0003 	-6.46608e-06 	-9.71708e-07 30.0003 	-6.46607e-06 	-9.71708e-07 30.0003 	-6.46607e-06 	-9.71708e-07 30.0003 	-6.46