# vtk DataFile Version 2.0
track0
ASCII
DATASET POLYDATA
POINTS 15780 float
-1.001 -0.05 0.0011
-1.0008 -0.05 0.0011
-1.0006 -0.05 0.0011
-1.0004 -0.05 0.0011
-1.0002 -0.05 0.0011
-1 -0.05 0.0011
-0.9875 -0.05 0.0011
-0.975 -0.05 0.0011
-0.9625 -0.05 0.0011
-0.95 -0.05 0.0011
-0.9375 -0.05 0.00109999
-0.925 -0.05 0.00109999
-0.9125 -0.05 0.00109999
-0.9 -0.05 0.00109999
-0.8875 -0.05 0.00109999
-0.875 -0.05 0.00109999
-0.8625 -0.05 0.00109999
-0.85 -0.05 0.00109999
-0.8375 -0.05 0.00109998
-0.825 -0.0500001 0.00109998
-0.8125 -0.0500001 0.00109998
-0.8 -0.0500001 0.00109998
-0.7875 -0.0500001 0.00109998
-0.775 -0.0500001 0.00109998
-0.7625 -0.0500001 0.00109998
-0.75 -0.0500001 0.00109998
-0.7375 -0.0500001 0.00109997
-0.725 -0.0500001 0.00109997
-0.7125 -0.0500001 0.00109997
-0.7 -0.0500001 0.00109997
-0.6875 -0.0500001 0.00109997
-0.675 -0.0500001 0.00109997
-0.6625 -0.0500001 0.00109997
-0.65 -0.0500001 0.00109996
-0.6375 -0.0500001 0.00109996
-0.625 -0.0500001 0.00109996
-0.6125 -0.0500001 0.00109996
-0.6 -0.0500001 0.00109996
-0.5875 -0.0500001 0.00109996
-0.575 -0.0500001 0.00109996
-0.5625 -0.0500001 0.00109996
-0.55 -0.0500001 0.00109995
-0.5375 -0.0500001 0.00109995
-0.525 -0.0500001 0.00109995
-0.5125 -0.0500001 0.00109995
-0.5 -0.0500001 0.00109995
-0.4875 -0.0500001 0.00109995
-0.475 -0.0500001 0.00109995
-0.4625 -0.0500001 0.00109994
-0.45 -0.0500002 0.00109994
-0.4375 -0.0500002 0.00109994
-0.425 -0.0500002 0.00109994
-0.4125 -0.0500002 0.00109994
-0.4 -0.0500002 0.00109994
-0.3875 -0.0500002 0.00109994
-0.375 -0.0500002 0.00109994
-0.3625 -0.0500002 0.00109993
-0.35 -0.0500002 0.00109993
-0.3375 -0.0500002 0.00109993
-0.325 -0.0500002 0.00109993
-0.3125 -0.0500002 0.00109993
-0.3 -0.0500002 0.00109993
-0.2875 -0.0500002 0.00109993
-0.275 -0.0500002 0.00109993
-0.2625 -0.0500002 0.00109992
-0.25 -0.0500002 0.00109992
-0.2375 -0.0500002 0.00109992
-0.225 -0.0500002 0.00109992
-0.2125 -0.0500002 0.00109992
-0.2 -0.0500002 0.00109992
-0.1875 -0.0500002 0.00109992
-0.175 -0.0500002 0.00109992
-0.1625 -0.0500002 0.00109991
-0.15 -0.0500002 0.00109991
-0.1375 -0.0500002 0.00109991
-0.125 -0.0500002 0.00109991
-0.1125 -0.0500002 0.00109991
-0.1 -0.0500002 0.00109991
-0.0875 -0.0500002 0.00109991
-0.075 -0.0500002 0.00109991
-0.0625 -0.0500002 0.00109991
-0.05 -0.0500003 0.00109991
-0.0375 -0.0500003 0.0010999
-0.025 -0.0500003 0.0010999
-0.0125 -0.0500003 0.0010999
2.10607e-13 -0.0500003 0.0010999
0.0125 -0.0500003 0.0010999
0.025 -0.0500003 0.0010999
0.0375 -0.0500003 0.0010999
0.05 -0.0500003 0.0010999
0.0625 -0.0500003 0.0010999
0.075 -0.0500003 0.0010999
0.0875 -0.0500003 0.0010999
0.1 -0.0500003 0.00109989
0.1125 -0.0500003 0.00109989
0.125 -0.0500003 0.00109989
0.1375 -0.0500003 0.00109989
0.15 -0.0500003 0.00109989
0.1625 -0.0500003 0.00109989
0.175 -0.0500003 0.00109989
0.1875 -0.0500003 0.00109989
0.2 -0.0500003 0.00109989
0.2125 -0.0500003 0.00109989
0.225 -0.0500003 0.00109989
0.2375 -0.0500003 0.00109989
0.25 -0.0500003 0.00109989
0.2625 -0.0500003 0.00109988
0.275 -0.0500003 0.00109988
0.2875 -0.0500003 0.00109988
0.3 -0.0500003 0.00109988
0.3125 -0.0500003 0.00109988
0.325 -0.0500003 0.00109988
0.3375 -0.0500003 0.00109988
0.35 -0.0500003 0.00109988
0.3625 -0.0500003 0.00109988
0.375 -0.0500003 0.00109988
0.3875 -0.0500003 0.00109988
0.4 -0.0500004 0.00109988
0.4125 -0.0500004 0.00109988
0.425 -0.0500004 0.00109988
0.4375 -0.0500004 0.00109988
0.45 -0.0500004 0.00109988
0.4625 -0.0500004 0.00109988
0.475 -0.0500004 0.00109988
0.4875 -0.0500004 0.00109988
0.5 -0.0500004 0.00109988
0.5125 -0.0500004 0.00109988
0.525 -0.0500004 0.00109988
0.5375 -0.0500004 0.00109988
0.55 -0.0500004 0.00109988
0.5625 -0.0500004 0.00109988
0.575 -0.0500004 0.00109987
0.5875 -0.0500004 0.00109987
0.6 -0.0500004 0.00109987
0.6125 -0.0500004 0.00109987
0.625 -0.0500004 0.00109987
0.6375 -0.0500004 0.00109987
0.65 -0.0500004 0.00109987
0.6625 -0.0500004 0.00109987
0.675 -0.0500004 0.00109987
0.6875 -0.0500004 0.00109987
0.7 -0.0500004 0.00109987
0.7125 -0.0500004 0.00109987
0.725 -0.0500004 0.00109987
0.7375 -0.0500004 0.00109987
0.75 -0.0500004 0.00109987
0.7625 -0.0500004 0.00109987
0.775 -0.0500004 0.00109987
0.7875 -0.0500004 0.00109987
0.8 -0.0500004 0.00109987
0.8125 -0.0500004 0.00109987
0.825 -0.0500004 0.00109987
0.8375 -0.0500004 0.00109987
0.85 -0.0500004 0.00109987
0.8625 -0.0500004 0.00109987
0.875 -0.0500004 0.00109987
0.8875 -0.0500004 0.00109987
0.9 -0.0500004 0.00109987
0.9125 -0.0500005 0.00109988
0.925 -0.0500005 0.00109988
0.9375 -0.0500005 0.00109988
0.95 -0.0500005 0.00109988
0.9625 -0.0500005 0.00109988
0.975 -0.0500005 0.00109988
0.9875 -0.0500005 0.00109988
1 -0.0500005 0.00109988
1.0125 -0.0500005 0.00109988
1.025 -0.0500005 0.00109988
1.0375 -0.0500005 0.00109988
1.05 -0.0500005 0.00109988
1.0625 -0.0500005 0.00109988
1.075 -0.0500005 0.00109988
1.0875 -0.0500005 0.00109988
1.1 -0.0500005 0.00109988
1.1125 -0.0500005 0.00109988
1.125 -0.0500005 0.00109988
1.1375 -0.0500005 0.00109988
1.15 -0.0500005 0.00109988
1.1625 -0.0500005 0.00109988
1.175 -0.0500005 0.00109988
1.1875 -0.0500005 0.00109988
1.2 -0.0500005 0.00109988
1.2125 -0.0500005 0.00109988
1.225 -0.0500005 0.00109988
1.2375 -0.0500005 0.00109989
1.25 -0.0500005 0.00109989
1.2625 -0.0500005 0.00109989
1.275 -0.0500005 0.00109989
1.2875 -0.0500005 0.00109989
1.3 -0.0500005 0.00109989
1.3125 -0.0500005 0.00109989
1.325 -0.0500005 0.00109989
1.3375 -0.0500005 0.00109989
1.35 -0.0500005 0.00109989
1.3625 -0.0500005 0.00109989
1.375 -0.0500005 0.00109989
1.3875 -0.0500005 0.00109989
1.4 -0.0500005 0.00109989
1.4125 -0.0500005 0.00109989
1.425 -0.0500005 0.00109989
1.4375 -0.0500005 0.0010999
1.45 -0.0500005 0.0010999
1.4625 -0.0500005 0.0010999
1.475 -0.0500005 0.0010999
1.4875 -0.0500005 0.0010999
1.5 -0.0500006 0.0010999
1.5125 -0.0500006 0.0010999
1.525 -0.0500006 0.0010999
1.5375 -0.0500006 0.0010999
1.55 -0.0500006 0.0010999
1.5625 -0.0500006 0.0010999
1.575 -0.0500006 0.0010999
1.5875 -0.0500006 0.0010999
1.6 -0.0500006 0.0010999
1.6125 -0.0500006 0.00109991
1.625 -0.0500006 0.00109991
1.6375 -0.0500006 0.00109991
1.65 -0.0500006 0.00109991
1.6625 -0.0500006 0.00109991
1.675 -0.0500006 0.00109991
1.6875 -0.0500006 0.00109991
1.7 -0.0500006 0.00109991
1.7125 -0.0500006 0.00109991
1.725 -0.0500006 0.00109991
1.7375 -0.0500006 0.00109991
1.75 -0.0500006 0.00109991
1.7625 -0.0500006 0.00109992
1.775 -0.0500006 0.00109992
1.7875 -0.0500006 0.00109992
1.8 -0.0500006 0.00109992
1.8125 -0.0500006 0.00109992
1.825 -0.0500006 0.00109992
1.8375 -0.0500006 0.00109992
1.85 -0.0500006 0.00109992
1.8625 -0.0500006 0.00109992
1.875 -0.0500006 0.00109992
1.8875 -0.0500006 0.00109992
1.9 -0.0500006 0.00109992
1.9125 -0.0500006 0.00109993
1.925 -0.0500006 0.00109993
1.9375 -0.0500006 0.00109993
1.95 -0.0500006 0.00109993
1.9625 -0.0500006 0.00109993
1.975 -0.0500006 0.00109993
1.9875 -0.0500006 0.00109993
2 -0.0500006 0.00109993
2.0125 -0.0500006 0.00109993
2.025 -0.0500006 0.00109993
2.0375 -0.0500006 0.00109993
2.05 -0.0500006 0.00109993
2.0625 -0.0500006 0.00109994
2.075 -0.0500006 0.00109994
2.0875 -0.0500006 0.00109994
2.1 -0.0500006 0.00109994
2.1125 -0.0500006 0.00109994
2.125 -0.0500006 0.00109994
2.1375 -0.0500006 0.00109994
2.15 -0.0500006 0.00109994
2.1625 -0.0500006 0.00109994
2.175 -0.0500007 0.00109994
2.1875 -0.0500007 0.00109994
2.2 -0.0500007 0.00109994
2.2125 -0.0500007 0.00109994
2.225 -0.0500007 0.00109995
2.2375 -0.0500007 0.00109995
2.25 -0.0500007 0.00109995
2.2625 -0.0500007 0.00109995
2.275 -0.0500007 0.00109995
2.2875 -0.0500007 0.00109995
2.3 -0.0500007 0.00109995
2.3125 -0.0500007 0.00109995
2.325 -0.0500007 0.00109995
2.3375 -0.0500007 0.00109995
2.35 -0.0500007 0.00109995
2.3625 -0.0500007 0.00109995
2.375 -0.0500007 0.00109995
2.3875 -0.0500007 0.00109996
2.4 -0.0500007 0.00109996
2.4125 -0.0500007 0.00109996
2.425 -0.0500007 0.00109996
2.4375 -0.0500007 0.00109996
2.45 -0.0500007 0.00109996
2.4625 -0.0500007 0.00109996
2.475 -0.0500007 0.00109996
2.4875 -0.0500007 0.00109996
2.5 -0.0500007 0.00109996
2.5125 -0.0500007 0.00109996
2.525 -0.0500007 0.00109996
2.5375 -0.0500007 0.00109996
2.55 -0.0500007 0.00109996
2.5625 -0.0500007 0.00109997
2.575 -0.0500007 0.00109997
2.5875 -0.0500007 0.00109997
2.6 -0.0500007 0.00109997
2.6125 -0.0500007 0.00109997
2.625 -0.0500007 0.00109997
2.6375 -0.0500007 0.00109997
2.65 -0.0500007 0.00109997
2.6625 -0.0500007 0.00109997
2.675 -0.0500007 0.00109997
2.6875 -0.0500007 0.00109997
2.7 -0.0500007 0.00109997
2.7125 -0.0500007 0.00109997
2.725 -0.0500007 0.00109997
2.7375 -0.0500007 0.00109997
2.75 -0.0500007 0.00109997
2.7625 -0.0500007 0.00109998
2.775 -0.0500007 0.00109998
2.7875 -0.0500007 0.00109998
2.8 -0.0500007 0.00109998
2.8125 -0.0500007 0.00109998
2.825 -0.0500007 0.00109998
2.8375 -0.0500007 0.00109998
2.85 -0.0500007 0.00109998
2.8625 -0.0500008 0.00109998
2.875 -0.0500008 0.00109998
2.8875 -0.0500008 0.00109998
2.9 -0.0500008 0.00109998
2.9125 -0.0500008 0.00109998
2.925 -0.0500008 0.00109998
2.9375 -0.0500008 0.00109998
2.95 -0.0500008 0.00109998
2.9625 -0.0500008 0.00109998
2.975 -0.0500008 0.00109998
2.9875 -0.0500008 0.00109998
3 -0.0500008 0.00109998
3.0125 -0.0500008 0.00109999
3.025 -0.0500008 0.00109999
3.0375 -0.0500008 0.00109999
3.05 -0.0500008 0.00109999
3.0625 -0.0500008 0.00109999
3.075 -0.0500008 0.00109999
3.0875 -0.0500008 0.00109999
3.1 -0.0500008 0.00109999
3.1125 -0.0500008 0.00109999
3.125 -0.0500008 0.00109999
3.1375 -0.0500008 0.00109999
3.15 -0.0500008 0.00109999
3.1625 -0.0500008 0.00109999
3.175 -0.0500008 0.00109999
3.1875 -0.0500008 0.00109999
3.2 -0.0500008 0.00109999
3.2125 -0.0500008 0.00109999
3.225 -0.0500008 0.00109999
3.2375 -0.0500008 0.00109999
3.25 -0.0500008 0.00109999
3.2625 -0.0500008 0.00109999
3.275 -0.0500008 0.00109999
3.2875 -0.0500008 0.00109999
3.3 -0.0500008 0.00109999
3.3125 -0.0500008 0.00109999
3.325 -0.0500008 0.00109999
3.3375 -0.0500008 0.00109999
3.35 -0.0500008 0.0011
3.3625 -0.0500008 0.0011
[...]
POINT_DATA 15780
 FIELD attributes 1
U 3 15780 float
30.0002 	-7.0179e-06 	-6.30587e-06 30.0002 	-6.84341e-06 	-6.51454e-06 30.0002 	-6.66893e-06 	-6.7232e-06 30.0002 	-6.49444e-06 	-6.93187e-06 30.0002 	-6.31995e-06 	-7.14054e-06 30.0002 	-6.14546e-06 	-7.34921e-06 30.0004 	-1.23852e-05 	-1.261e-06 30.0004 	-1.23852e-05 	-1.261e-06 30.0004 	-1.23852e-05 	-1.261e-06 30.0004 	-1.23852e-05 	-1.261e-06 30.0002 	-7.05178e-08 	-6.84367e-06 30.0005 	-1.07091e-05 	-1.68705e-06 30.0005 	-1.07091e-05 	-1.68705e-06 30.0005 	-1.07091e-05 	-1.68705e-06 30.0005 	-1.0709e-05 	-1.68705e-06 30.0002 	-7.21954e-08 	-6.59608e-06 30.0005 	-9.9585e-06 	-2.08023e-06 30.0005 	-9.95849e-06 	-2.08022e-06 30.0005 	-9.95848e-06 	-2.08022e-06 30.0005 	-9.95847e-06 	-2.08022e-06 30.0003 	-4.59309e-06 	-6.24726e-06 30.0005 	-9.69174e-06 	-2.34895e-06 30.0005 	-9.69173e-06 	-2.34895e-06 30.0005 	-9.69172e-06 	-2.34895e-06 30.0005 	-9.69171e-06 	-2.34895e-06 30.0003 	-7.57942e-08 	-6.57615e-06 30.0005 	-9.52356e-06 	-2.49782e-06 30.0005 	-9.52355e-06 	-2.49782e-06 30.0005 	-9.52354e-06 	-2.49782e-06 30.0005 	-9.52353e-06 	-2.49781e-06 30.0003 	-7.75557e-08 	-6.52626e-06 30.0005 	-9.3872e-06 	-2.55606e-06 30.0005 	-9.3872e-06 	-2.55606e-06 30.0005 	-9.38719e-06 	-2.55606e-06 30.0005 	-9.38718e-06 	-2.55606e-06 30.0003 	-4.26692e-06 	-6.08528e-06 30.0005 	-9.27979e-06 	-2.55829e-06 30.0005 	-9.27978e-06 	-2.55829e-06 30.0005 	-9.27977e-06 	-2.55829e-06 30.0005 	-9.27977e-06 	-2.55828e-06 30.0003 	-4.19931e-06 	-5.97789e-06 30.0006 	-9.1876e-06 	-2.53042e-06 30.0006 	-9.1876e-06 	-2.53042e-06 30.0006 	-9.18759e-06 	-2.53042e-06 30.0006 	-9.18758e-06 	-2.53042e-06 30.0003 	-8.28712e-08 	-6.20126e-06 30.0006 	-9.09755e-06 	-2.48118e-06 30.0006 	-9.09754e-06 	-2.48118e-06 30.0006 	-9.09753e-06 	-2.48117e-06 30.0006 	-9.09752e-06 	-2.48117e-06 30.0003 	-8.46308e-08 	-6.05423e-06 30.0006 	-9.0051e-06 	-2.4136e-06 30.0006 	-9.00509e-06 	-2.4136e-06 30.0006 	-9.00509e-06 	-2.4136e-06 30.0006 	-9.00508e-06 	-2.4136e-06 30.0003 	-8.63932e-08 	-5.88782e-06 30.0006 	-8.90897e-06 	-2.32972e-06 30.0006 	-8.90896e-06 	-2.32972e-06 30.0006 	-8.90896e-06 	-2.32972e-06 30.0006 	-8.90895e-06 	-2.32971e-06 30.0003 	-3.93793e-06 	-5.36347e-06 30.0006 	-8.80894e-06 	-2.23274e-06 30.0006 	-8.80894e-06 	-2.23274e-06 30.0006 	-8.80893e-06 	-2.23274e-06 30.0006 	-8.80892e-06 	-2.23274e-06 30.0003 	-3.86415e-06 	-5.16476e-06 30.0006 	-8.70467e-06 	-2.12414e-06 30.0006 	-8.70466e-06 	-2.12414e-06 30.0006 	-8.70466e-06 	-2.12414e-06 30.0006 	-8.70465e-06 	-2.12413e-06 30.0003 	-9.16821e-08 	-5.28458e-06 30.0006 	-8.59651e-06 	-2.00508e-06 30.0006 	-8.5965e-06 	-2.00508e-06 30.0006 	-8.5965e-06 	-2.00508e-06 30.0006 	-8.59649e-06 	-2.00507e-06 30.0003 	-3.70456e-06 	-4.7194e-06 30.0007 	-8.48515e-06 	-1.87668e-06 30.0007 	-8.48515e-06 	-1.87668e-06 30.0007 	-8.48514e-06 	-1.87668e-06 30.0007 	-8.48513e-06 	-1.87668e-06 30.0003 	-3.61948e-06 	-4.47431e-06 30.0007 	-8.37183e-06 	-1.73884e-06 30.0007 	-8.37182e-06 	-1.73884e-06 30.0007 	-8.37182e-06 	-1.73884e-06 30.0007 	-8.37181e-06 	-1.73884e-06 30.0004 	-9.69581e-08 	-4.5432e-06 30.0007 	-8.26031e-06 	-1.59804e-06 30.0007 	-8.26031e-06 	-1.59804e-06 30.0007 	-8.2603e-06 	-1.59804e-06 30.0007 	-8.2603e-06 	-1.59804e-06 30.0004 	-9.87215e-08 	-4.27125e-06 30.0007 	-8.14833e-06 	-1.46324e-06 30.0007 	-8.14832e-06 	-1.46324e-06 30.0007 	-8.14832e-06 	-1.46324e-06 30.0007 	-8.14832e-06 	-1.46323e-06 30.0004 	-1.00469e-07 	-3.98928e-06 30.0007 	-8.02028e-06 	-1.32073e-06 30.0007 	-8.02027e-06 	-1.32073e-06 30.0007 	-8.02027e-06 	-1.32073e-06 30.0007 	-8.02027e-06 	-1.32072e-06 30.0004 	-3.25119e-06 	-3.37796e-06 30.0007 	-7.8815e-06 	-1.16801e-06 30.0007 	-7.8815e-06 	-1.16801e-06 30.0007 	-7.8815e-06 	-1.16801e-06 30.0007 	-7.88149e-06 	-1.16801e-06 30.0004 	-1.03926e-07 	-3.40289e-06 30.0007 	-7.74561e-06 	-1.00788e-06 30.0007 	-7.74561e-06 	-1.00788e-06 30.0007 	-7.7456e-06 	-1.00788e-06 30.0007 	-7.7456e-06 	-1.00788e-06 30.0004 	-1.05656e-07 	-3.10328e-06 30.0007 	-7.61149e-06 	-8.41868e-07 30.0007 	-7.61149e-06 	-8.41867e-07 30.0007 	-7.61149e-06 	-8.41867e-07 30.0007 	-7.61149e-06 	-8.41867e-07 30.0004 	-2.93206e-06 	-2.48789e-06 30.0007 	-7.47574e-06 	-6.70216e-07 30.0007 	-7.47574e-06 	-6.70216e-07 30.0007 	-7.47574e-06 	-6.70216e-07 30.0007 	-7.47573e-06 	-6.70216e-07 30.0004 	-2.82561e-06 	-2.18314e-06 30.0007 	-7.34366e-06 	-4.97063e-07 30.0007 	-7.34365e-06 	-4.97063e-07 30.0007 	-7.34365e-06 	-4.97063e-07 30.0007 	-7.34365e-06 	-4.97063e-07 30.0004 	-1.10787e-07 	-2.17113e-06 30.0007 	-7.21589e-06 	-3.17337e-07 30.0007 	-7.21588e-06 	-3.17337e-07 30.0007 	-7.21588e-06 	-3.17337e-07 30.0007 	-7.21588e-06 	-3.17336e-07 30.0004 	-1.12479e-07 	-1.85339e-06 30.0007 	-7.09917e-06 	-1.38231e-07 30.0007 	-7.09917e-06 	-1.38231e-07 30.0007 	-7.09917e-06 	-1.3823e-07 30.0007 	-7.09917e-06 	-1.3823e-07 30.0004 	-1.14149e-07 	-1.54904e-06 30.0007 	-6.98586e-06 	4.08384e-08 30.0007 	-6.98586e-06 	4.08384e-08 30.0007 	-6.98586e-06 	4.08384e-08 30.0007 	-6.98586e-06 	4.08384e-08 30.0004 	-2.43922e-06 	-9.58517e-07 30.0007 	-6.87228e-06 	2.14652e-07 30.0007 	-6.87228e-06 	2.14652e-07 30.0007 	-6.87228e-06 	2.14652e-07 30.0007 	-6.87228e-06 	2.14652e-07 30.0004 	-2.34763e-06 	-6.82315e-07 30.0007 	-6.75419e-06 	3.90705e-07 30.0007 	-6.75419e-06 	3.90705e-07 30.0007 	-6.75419e-06 	3.90706e-07 30.0007 	-6.7542e-06 	3.90706e-07 30.0004 	-1.19176e-07 	-7.09792e-07 30.0007 	-6.64375e-06 	5.64362e-07 30.0007 	-6.64375e-06 	5.64362e-07 30.0007 	-6.64375e-06 	5.64362e-07 30.0007 	-6.64375e-06 	5.64363e-07 30.0004 	-2.16734e-06 	-1.45458e-07 30.0007 	-6.53678e-06 	7.27389e-07 30.0007 	-6.53678e-06 	7.27389e-07 30.0007 	-6.53678e-06 	7.2739e-07 30.0007 	-6.53679e-06 	7.2739e-07 30.0004 	-2.08168e-06 	1.13818e-07 30.0007 	-6.4315e-06 	8.78828e-07 30.0007 	-6.4315e-06 	8.78828e-07 30.0007 	-6.43151e-06 	8.78828e-07 30.0007 	-6.43151e-06 	8.78829e-07 30.0004 	-1.24142e-07 	7.05557e-08 30.0007 	-6.324e-06 	1.01779e-06 30.0007 	-6.324e-06 	1.01779e-06 30.0007 	-6.32401e-06 	1.01779e-06 30.0007 	-6.32401e-06 	1.01779e-06 30.0004 	-1.25753e-07 	3.15787e-07 30.0007 	-6.21765e-06 	1.14062e-06 30.0007 	-6.21765e-06 	1.14062e-06 30.0007 	-6.21765e-06 	1.14062e-06 30.0007 	-6.21765e-06 	1.14062e-06 30.0004 	-1.27344e-07 	5.45508e-07 30.0007 	-6.11639e-06 	1.25633e-06 30.0007 	-6.11639e-06 	1.25633e-06 30.0007 	-6.1164e-06 	1.25633e-06 30.0007 	-6.1164e-06 	1.25633e-06 30.0004 	-1.76491e-06 	1.03206e-06 30.0007 	-6.02367e-06 	1.37128e-06 30.0007 	-6.02368e-06 	1.37128e-06 30.0007 	-6.02368e-06 	1.37128e-06 30.0007 	-6.02368e-06 	1.37128e-06 30.0004 	-1.30457e-07 	9.36927e-07 30.0007 	-5.94402e-06 	1.4885e-06 30.0007 	-5.94402e-06 	1.48851e-06 30.0007 	-5.94403e-06 	1.48851e-06 30.0007 	-5.94403e-06 	1.48851e-06 30.0004 	-1.31962e-07 	1.10455e-06 30.0007 	-5.8728e-06 	1.59289e-06 30.0007 	-5.87281e-06 	1.5929e-06 30.0007 	-5.87281e-06 	1.5929e-06 30.0007 	-5.87281e-06 	1.5929e-06 30.0004 	-1.59202e-06 	1.53875e-06 30.0007 	-5.80319e-06 	1.67932e-06 30.0007 	-5.80319e-06 	1.67933e-06 30.0007 	-5.8032e-06 	1.67933e-06 30.0007 	-5.8032e-06 	1.67933e-06 30.0003 	-1.5448e-06 	1.6782e-06 30.0007 	-5.73515e-06 	1.75012e-06 30.0007 	-5.73516e-06 	1.75012e-06 30.0007 	-5.73516e-06 	1.75012e-06 30.0007 	-5.73516e-06 	1.75012e-06 30.0003 	-1.36658e-07 	1.52472e-06 30.0006 	-5.67e-06 	1.80982e-06 30.0006 	-5.67e-06 	1.80983e-06 30.0006 	-5.67001e-06 	1.80983e-06 30.0006 	-5.67001e-06 	1.80983e-06 30.0003 	-1.38201e-07 	1.63226e-06 30.0006 	-5.6099e-06 	1.85996e-06 30.0006 	-5.60991e-06 	1.85996e-06 30.0006 	-5.60991e-06 	1.85996e-06 30.0006 	-5.60992e-06 	1.85996e-06 30.0003 	-1.39656e-07 	1.72399e-06 30.0006 	-5.55558e-06 	1.90045e-06 30.0006 	-5.55559e-06 	1.90045e-06 30.0006 	-5.55559e-06 	1.90046e-06 30.0006 	-5.5556e-06 	1.90046e-06 30.0003 	-1.38944e-06 	2.07102e-06 30.0006 	-5.50673e-06 	1.93111e-06 30.0006 	-5.50673e-06 	1.93111e-06 30.0006 	-5.50673e-06 	1.93111e-06 30.0006 	-5.50674e-06 	1.93111e-06 30.0003 	-1.3624e-06 	2.13095e-06 30.0006 	-5.46299e-06 	1.95185e-06 30.0006 	-5.46299e-06 	1.95185e-06 30.0006 	-5.463e-06 	1.95185e-06 30.0006 	-5.463e-06 	1.95185e-06 30.0003 	-1.43648e-07 	1.90826e-06 30.0006 	-5.42418e-06 	1.9628e-06 30.0006 	-5.42418e-06 	1.9628e-06 30.0006 	-5.42419e-06 	1.9628e-06 30.0006 	-5.42419e-06 	1.9628e-06 30.0003 	-1.32398e-06 	2.20765e-06 30.0006 	-5.39019e-06 	1.96433e-06 30.0006 	-5.39019e-06 	1.96433e-06 30.0006 	-5.39019e-06 	1.96433e-06 30.0006 	-5.3902e-06 	1.96433e-06 30.0003 	-1.31219e-06 	2.22553e-06 30.0006 	-5.36098e-06 	1.95693e-06 30.0006 	-5.36098e-06 	1.95693e-06 30.0006 	-5.36099e-06 	1.95693e-06 30.0006 	-5.36099e-06 	1.95693e-06 30.0003 	-1.47465e-07 	1.96616e-06 30.0005 	-5.33647e-06 	1.94113e-06 30.0005 	-5.33647e-06 	1.94113e-06 30.0005 	-5.33648e-06 	1.94113e-06 30.0005 	-5.33648e-06 	1.94113e-06 30.0003 	-1.48697e-07 	1.96056e-06 30.0005 	-5.31644e-06 	1.91794e-06 30.0005 	-5.31644e-06 	1.91794e-06 30.0005 	-5.31644e-06 	1.91794e-06 30.0005 	-5.31645e-06 	1.91794e-06 30.0003 	-1.49895e-07 	1.94423e-06 30.0005 	-5.3008e-06 	1.888e-06 30.0005 	-5.30081e-06 	1.888e-06 30.0005 	-5.30081e-06 	1.88801e-06 30.0005 	-5.30082e-06 	1.88801e-06 30.0003 	-1.30957e-06 	2.17899e-06 30.0005 	-5.28942e-06 	1.8519e-06 30.0005 	-5.28943e-06 	1.8519e-06 30.0005 	-5.28943e-06 	1.85191e-06 30.0005 	-5.28944e-06 	1.85191e-06 30.0003 	-1.52207e-07 	1.88229e-06 30.0005 	-5.28211e-06 	1.81008e-06 30.0005 	-5.28211e-06 	1.81008e-06 30.0005 	-5.28212e-06 	1.81008e-06 30.0005 	-5.28212e-06 	1.81008e-06 30.0003 	-1.53311e-07 	1.83817e-06 30.0005 	-5.27863e-06 	1.76316e-06 30.0005 	-5.27863e-06 	1.76316e-06 30.0005 	-5.27864e-06 	1.76316e-06 30.0005 	-5.27864e-06 	1.76316e-06 30.0003 	-1.34874e-06 	2.04406e-06 30.0005 	-5.27876e-06 	1.71162e-06 30.0005 	-5.27877e-06 	1.71162e-06 30.0005 	-5.27877e-06 	1.71162e-06 30.0005 	-5.27878e-06 	1.71162e-06 30.0003 	-1.36879e-06 	1.98422e-06 30.0005 	-5.28231e-06 	1.65599e-06 30.0005 	-5.28232e-06 	1.65599e-06 30.0005 	-5.28232e-06 	1.65599e-06 30.0005 	-5.28232e-06 	1.65599e-06 30.0002 	-1.56479e-07 	1.6628e-06 30.0005 	-5.28908e-06 	1.59667e-06 30.0005 	-5.28908e-06 	1.59667e-06 30.0005 	-5.28908e-06 	1.59667e-06 30.0005 	-5.28909e-06 	1.59667e-06 30.0002 	-1.57521e-07 	1.59255e-06 30.0004 	-5.299e-06 	1.53415e-06 30.0004 	-5.299e-06 	1.53415e-06 30.0004 	-5.299e-06 	1.53415e-06 30.0004 	-5.29901e-06 	1.53415e-06 30.0002 	-1.58584e-07 	1.51768e-06 30.0004 	-5.31191e-06 	1.46888e-06 30.0004 	-5.31191e-06 	1.46888e-06 30.0004 	-5.31192e-06 	1.46888e-06 30.0004 	-5.31192e-06 	1.46888e-06 30.0002 	-1.48042e-06 	1.69061e-06 30.0004 	-5.32742e-06 	1.40143e-06 30.0004 	-5.32743e-06 	1.40143e-06 30.0004 	-5.32743e-06 	1.40143e-06 30.0004 	-5.32743e-06 	1.40143e-06 30.0002 	-1.51494e-06 	1.60712e-06 30.0004 	-5.34532e-06 	1.33218e-06 30.0004 	-5.34532e-06 	1.33218e-06 30.0004 	-5.34532e-06 	1.33218e-06 30.0004 	-5.34532e-06 	1.33218e-06 30.0002 	-1.61812e-07 	1.27186e-06 30.0004 	-5.36533e-06 	1.26147e-06 30.0004 	-5.36533e-06 	1.26147e-06 30.0004 	-5.36534e-06 	1.26147e-06 30.0004 	-5.36534e-06 	1.26147e-06 30.0002 	-1.59027e-06 	1.43249e-06 30.0004 	-5.38713e-06 	1.1898e-06 30.0004 	-5.38713e-06 	1.1898e-06 30.0004 	-5.38713e-06 	1.1898e-06 30.0004 	-5.38714e-06 	1.1898e-06 30.0002 	-1.63075e-06 	1.34241e-06 30.0004 	-5.41074e-06 	1.11746e-06 30.0004 	-5.41074e-06 	1.11746e-06 30.0004 	-5.41074e-06 	1.11746e-06 30.0004 	-5.41074e-06 	1.11747e-06 30.0002 	-1.64828e-07 	1.00608e-06 30.0004 	-5.4359e-06 	1.04479e-06 30.0004 	-5.4359e-06 	1.04479e-06 30.0004 	-5.4359e-06 	1.04479e-06 30.0004 	-5.4359e-06 	1.04479e-06 30.0002 	-1.65784e-07 	9.15605e-07 30.0004 	-5.46153e-06 	9.72258e-07 30.0004 	-5.46153e-06 	9.72259e-07 30.0004 	-5.46153e-06 	9.72259e-07 30.0004 	-5.46153e-06 	9.72259e-07 30.0002 	-1.66683e-07 	8.24983e-07 30.0004 	-5.48755e-06 	8.99481e-07 30.0004 	-5.48755e-06 	8.99481e-07 30.0004 	-5.48755e-06 	8.99482e-07 30.0004 	-5.48755e-06 	8.99482e-07 30.0002 	-1.80765e-06 	9.75416e-07 30.0004 	-5.51431e-06 	8.2595e-07 30.0004 	-5.51431e-06 	8.25951e-07 30.0004 	-5.51431e-06 	8.25951e-07 30.0004 	-5.51431e-06 	8.25951e-07 30.0002 	-1.68376e-07 	6.43618e-07 30.0003 	-5.54405e-06 	7.51992e-07 30.0003 	-5.54405e-06 	7.51992e-07 30.0003 	-5.54406e-06 	7.51993e-07 30.0003 	-5.54406e-06 	7.51993e-07 30.0002 	-1.6921e-07 	5.52624e-07 30.0003 	-5.57852e-06 	6.7745e-07 30.0003 	-5.57852e-06 	6.7745e-07 30.0003 	-5.57853e-06 	6.7745e-07 30.0003 	-5.57853e-06 	6.77451e-07 30.0002 	-1.956e-06 	7.0131e-07 30.0003 	-5.61536e-06 	6.04383e-07 30.0003 	-5.61536e-06 	6.04383e-07 30.0003 	-5.61536e-06 	6.04383e-07 30.0003 	-5.61537e-06 	6.04383e-07 30.0002 	-2.00819e-06 	6.11681e-07 30.0003 	-5.65149e-06 	5.34676e-07 30.0003 	-5.65149e-06 	5.34676e-07 30.0003 	-5.65149e-06 	5.34676e-07 30.0003 	-5.65149e-06 	5.34676e-07 30.0002 	-1.71702e-07 	2.8093e-07 30.0003 	-5.6826e-06 	4.67656e-07 30.0003 	-5.6826e-06 	4.67657e-07 30.0003 	-5.6826e-06 	4.67657e-07 30.0003 	-5.6826e-06 	4.67657e-07 30.0002 	-1.72532e-07 	1.97318e-07 30.0003 	-5.71101e-06 	4.03216e-07 30.0003 	-5.71101e-06 	4.03216e-07 30.0003 	-5.71101e-06 	4.03216e-07 30.0003 	-5.71101e-06 	4.03216e-07 30.0002 	-1.73325e-07 	1.16389e-07 30.0003 	-5.73917e-06 	3.39254e-07 30.0003 	-5.73917e-06 	3.39254e-07 30.0003 	-5.73917e-06 	3.39254e-07 30.0003 	-5.73917e-06 	3.39254e-07 30.0002 	-2.20145e-06 	2.74085e-07 30.0003 	-5.76713e-06 	2.75287e-07 30.0003 	-5.76713e-06 	2.75287e-07 30.0003 	-5.76713e-06 	2.75287e-07 30.0003 	-5.76713e-06 	2.75287e-07 30.0002 	-2.24838e-06 	1.96344e-07 30.0003 	-5.79394e-06 	2.10812e-07 30.0003 	-5.79394e-06 	2.10812e-07 30.0003 	-5.79394e-06 	2.10812e-07 30.0003 	-5.79395e-06 	2.10812e-07 30.0002 	-1.75518e-07 	-1.09151e-07 30.0003 	-5.822e-06 	1.48815e-07 30.0003 	-5.822e-06 	1.48815e-07 30.0003 	-5.822e-06 	1.48815e-07 30.0003 	-5.822e-06 	1.48815e-07 30.0002 	-2.34218e-06 	4.46643e-08 30.0003 	-5.85124e-06 	9.00215e-08 30.0003 	-5.85124e-06 	9.00215e-08 30.0003 	-5.85124e-06 	9.00215e-08 30.0003 	-5.85124e-06 	9.00215e-08 30.0002 	-2.38948e-06 	-2.91106e-08 30.0003 	-5.88167e-06 	3.48525e-08 30.0003 	-5.88167e-06 	3.48525e-08 30.0003 	-5.88167e-06 	3.48525e-08 30.0003 	-5.88167e-06 	3.48525e-08 30.0002 	-1.77538e-07 	-3.30773e-07 30.0003 	-5.9135e-06 	-1.70213e-08 30.0003 	-5.9135e-06 	-1.70213e-08 30.0003 	-5.9135e-06 	-1.70213e-08 30.0003 	-5.9135e-06 	-1.70213e-08 30.0002 	-1.7818e-07 	-4.01803e-07 30.0003 	-5.9466e-06 	-6.89967e-08 30.0003 	-5.9466e-06 	-6.89967e-08 30.0003 	-5.9466e-06 	-6.89967e-08 30.0003 	-5.9466e-06 	-6.89967e-08 30.0002 	-1.78777e-07 	-4.67071e-07 30.0003 	-5.97854e-06 	-1.23258e-07 30.0003 	-5.97854e-06 	-1.23258e-07 30.0003 	-5.97854e-06 	-1.23258e-07 30.0003 	-5.97854e-06 	-1.23258e-07 30.0002 	-2.58099e-06 	-3.01382e-07 30.0003 	-6.00629e-06 	-1.779e-07 30.0003 	-6.00629e-06 	-1.779e-07 30.0003 	-6.00629e-06 	-1.779e-07 30.0003 	-6.00629e-06 	-1.779e-07 30.0002 	-1.79943e-07 	-5.84879e-07 30.0003 	-6.03042e-06 	-2.29154e-07 30.0003 	-6.03042e-06 	-2.29154e-07 30.0003 	-6.03042e-06 	-2.29154e-07 30.0003 	-6.03042e-06 	-2.29154e-07 30.0002 	-1.80542e-07 	-6.42139e-07 30.0003 	-6.05365e-06 	-2.76116e-07 30.0003 	-6.05365e-06 	-2.76116e-07 30.0003 	-6.05365e-06 	-2.76116e-07 30.0003 	-6.05365e-06 	-2.76116e-07 30.0002 	-2.70903e-06 	-4.78985e-07 30.0003 	-6.07749e-06 	-3.19597e-07 30.0003 	-6.07748e-06 	-3.19597e-07 30.0003 	-6.07748e-06 	-3.19597e-07 30.0003 	-6.07748e-06 	-3.19597e-07 30.0002 	-2.75006e-06 	-5.34028e-07 30.0003 	-6.10179e-06 	-3.61121e-07 30.0003 	-6.10179e-06 	-3.61121e-07 30.0003 	-6.10178e-06 	-3.61121e-07 30.0003 	-6.10178e-06 	-3.61121e-07 30.0002 	-1.82264e-07 	-8.03774e-07 30.0003 	-6.12581e-06 	-4.01316e-07 30.0003 	-6.12581e-06 	-4.01316e-07 30.0003 	-6.12581e-06 	-4.01315e-07 30.0003 	-6.12581e-06 	-4.01315e-07 30.0001 	-1.828e-07 	-8.5309e-07 30.0003 	-6.14918e-06 	-4.40309e-07 30.0003 	-6.14918e-06 	-4.40309e-07 30.0003 	-6.14918e-06 	-4.40309e-07 30.0003 	-6.14918e-06 	-4.40309e-07 30.0001 	-1.83317e-07 	-9.00298e-07 30.0003 	-6.17181e-06 	-4.77931e-07 30.0003 	-6.1718e-06 	-4.77931e-07 30.0003 	-6.1718e-06 	-4.77931e-07 30.0003 	-6.1718e-06 	-4.7793e-07 30.0001 	-2.90951e-06 	-7.31458e-07 30.0003 	-6.19357e-06 	-5.14146e-07 30.0003 	-6.19357e-06 	-5.14146e-07 30.0003 	-6.19357e-06 	-5.14146e-07 30.0003 	-6.19356e-06 	-5.14146e-07 30.0001 	-2.94737e-06 	-7.75583e-07 30.0003 	-6.21453e-06 	-5.48764e-07 30.0003 	-6.21453e-06 	-5.48763e-07 30.0003 	-6.21453e-06 	-5.48763e-07 30.0003 	-6.21453e-06 	-5.48763e-07 30.0001 	-1.84815e-07 	-1.0295e-06 30.0003 	-6.23465e-06 	-5.81976e-07 30.0003 	-6.23465e-06 	-5.81975e-07 30.0003 	-6.23465e-06 	-5.81975e-07 30.0003 	-6.23465e-06 	-5.81975e-07 30.0001 	-3.02036e-06 	-8.57469e-07 30.0003 	-6.25389e-06 	-6.1382e-07 30.0003 	-6.25389e-06 	-6.1382e-07 30.0003 	-6.25389e-06 	-6.1382e-07 30.0003 	-6.25389e-06 	-6.1382e-07 30.0001 	-3.05544e-06 	-8.95478e-07 30.0003 	-6.27237e-06 	-6.44345e-07 30.0003 	-6.27237e-06 	-6.44345e-07 30.0003 	-6.27236e-06 	-6.44345e-07 30.0003 	-6.27236e-06 	-6.44345e-07 30.0001 	-1.86208e-07 	-1.14081e-06 30.0003 	-6.29015e-06 	-6.73546e-07 30.0003 	-6.29015e-06 	-6.73546e-07 30.0003 	-6.29015e-06 	-6.73546e-07 30.0003 	-6.29014e-06 	-6.73546e-07 30.0001 	-1.86659e-07 	-1.17456e-06 30.0003 	-6.30714e-06 	-7.01365e-07 30.0003 	-6.30714e-06 	-7.01365e-07 30.0003 	-6.30713e-06 	-7.01364e-07 30.0003 	-6.30713e-06 	-7.01364e-07 30.0001 	-1.87092e-07 	-1.20665e-06 30.0003 	-6.32319e-06 	-7.27798e-07 30.0003 	-6.32318e-06 	-7.27798e-07 30.0003 	-6.32318e-06 	-7.27798e-07 30.0003 	-6.32318e-06 	-7.27797e-07 30.0001 	-3.18685e-06 	-1.031e-06 30.0003 	-6.33841e-06 	-7.52911e-07 30.0003 	-6.33841e-06 	-7.52911e-07 30.0003 	-6.33841e-06 	-7.52911e-07 30.0003 	-6.3384e-06 	-7.52911e-07 30.0001 	-1.87923e-07 	-1.26593e-06 30.0003 	-6.35291e-06 	-7.76881e-07 30.0003 	-6.35291e-06 	-7.76881e-07 30.0003 	-6.3529e-06 	-7.7688e-07 30.0003 	-6.3529e-06 	-7.7688e-07 30.0001 	-1.88327e-07 	-1.29329e-06 30.0003 	-6.36668e-06 	-7.99753e-07 30.0003 	-6.36668e-06 	-7.99753e-07 30.0003 	-6.36668e-06 	-7.99753e-07 30.0003 	-6.36668e-06 	-7.99752e-07 30.0001 	-3.27621e-06 	-1.11605e-06 30.0003 	-6.37973e-06 	-8.21482e-07 30.0003 	-6.37973e-06 	-8.21482e-07 30.0003 	-6.37972e-06 	-8.21482e-07 30.0003 	-6.37972e-06 	-8.21482e-07 30.0001 	-3.30431e-06 	-1.14152e-06 30.0003 	-6.39204e-06 	-8.41918e-07 30.0003 	-6.39204e-06 	-8.41918e-07 30.0003 	-6.39204e-06 	-8.41918e-07 30.0003 	-6.39203e-06 	-8.41918e-07 30.0001 	-1.89487e-07 	-1.36683e-06 30.0003 	-6.40364e-06 	-8.61315e-07 30.0003 	-6.40364e-06 	-8.61314e-07 30.0003 	-6.40364e-06 	-8.61314e-07 30.0003 	-6.40364e-06 	-8.61314e-07 30.0001 	-1.89859e-07 	-1.38871e-06 30.0003 	-6.41455e-06 	-8.79754e-07 30.0003 	-6.41455e-06 	-8.79754e-07 30.0003 	-6.41455e-06 	-8.79754e-07 30.0003 	-6.41454e-06 	-8.79753e-07 30.0001 	-1.90224e-07 	-1.40936e-06 30.0003 	-6.42476e-06 	-8.9724e-07 30.0003 	-6.42476e-06 	-8.9724e-07 30.0003 	-6.42476e-06 	-8.9724e-07 30.0003 	-6.42476e-06 	-8.9724e-07 30.0001 	-3.40858e-06 	-1.23052e-06 30.0003 	-6.43431e-06 	-9.13827e-07 30.0003 	-6.43431e-06 	-9.13827e-07 30.0003 	-6.4343e-06 	-9.13827e-07 30.0003 	-6.4343e-06 	-9.13826e-07 30.0001 	-3.43271e-06 	-1.24985e-06 30.0003 	-6.44321e-06 	-9.29515e-07 30.0003 	-6.44321e-06 	-9.29514e-07 30.0003 	-6.44321e-06 	-9.29514e-07 30.0003 	-6.4432e-06 	-9.29514e-07 30.0001 	-1.91294e-07 	-1.46453e-06 30.0003 	-6.45149e-06 	-9.44367e-07 30.0003 	-6.45149e-06 	-9.44367e-07 30.0003 	-6.45148e-06 	-9.44366e-07 30.0003 	-6.45148e-06 	-9.44366e-07 30.0001 	-3.47878e-06 	-1.28534e-06 30.0003 	-6.45914e-06 	-9.58374e-07 30.0003 	-6.45914e-06 	-9.58373e-07 30.0003 	-6.45913e-06 	-9.58373e-07 30.0003 	-6.45913e-06 	-9.58373e-07 30.0001 	-3.50083e-06 	-1.3016e-06 30.0003 	-6.4662e-06 	-9.71667e-07 30.0003 	-6.4662e-06 	-9.71667e-07 30.0003 	-6.4662e-06 	-9.71667e-07 30.0003 	-6.4662e-06 	-9.71666e-07 30.0001 	-1.92312e-07 	-1.51055e-