# vtk DataFile Version 2.0
track0
ASCII
DATASET POLYDATA
POINTS 15780 float
-1.001 -0.05 0.0011
-1.0008 -0.05 0.0011
-1.0006 -0.05 0.0011
-1.0004 -0.05 0.0011
-1.0002 -0.05 0.0011
-1 -0.05 0.0011
-0.9875 -0.05 0.0011
-0.975 -0.05 0.0011
-0.9625 -0.05 0.0011
-0.95 -0.05 0.0011
-0.9375 -0.05 0.00109999
-0.925 -0.05 0.00109999
-0.9125 -0.05 0.00109999
-0.9 -0.05 0.00109999
-0.8875 -0.05 0.00109999
-0.875 -0.05 0.00109999
-0.8625 -0.05 0.00109999
-0.85 -0.05 0.00109999
-0.8375 -0.05 0.00109998
-0.825 -0.0500001 0.00109998
-0.8125 -0.0500001 0.00109998
-0.8 -0.0500001 0.00109998
-0.7875 -0.0500001 0.00109998
-0.775 -0.0500001 0.00109998
-0.7625 -0.0500001 0.00109998
-0.75 -0.0500001 0.00109998
-0.7375 -0.0500001 0.00109997
-0.725 -0.0500001 0.00109997
-0.7125 -0.0500001 0.00109997
-0.7 -0.0500001 0.00109997
-0.6875 -0.0500001 0.00109997
-0.675 -0.0500001 0.00109997
-0.6625 -0.0500001 0.00109997
-0.65 -0.0500001 0.00109996
-0.6375 -0.0500001 0.00109996
-0.625 -0.0500001 0.00109996
-0.6125 -0.0500001 0.00109996
-0.6 -0.0500001 0.00109996
-0.5875 -0.0500001 0.00109996
-0.575 -0.0500001 0.00109996
-0.5625 -0.0500001 0.00109996
-0.55 -0.0500001 0.00109995
-0.5375 -0.0500001 0.00109995
-0.525 -0.0500001 0.00109995
-0.5125 -0.0500001 0.00109995
-0.5 -0.0500001 0.00109995
-0.4875 -0.0500001 0.00109995
-0.475 -0.0500001 0.00109995
-0.4625 -0.0500001 0.00109994
-0.45 -0.0500002 0.00109994
-0.4375 -0.0500002 0.00109994
-0.425 -0.0500002 0.00109994
-0.4125 -0.0500002 0.00109994
-0.4 -0.0500002 0.00109994
-0.3875 -0.0500002 0.00109994
-0.375 -0.0500002 0.00109994
-0.3625 -0.0500002 0.00109993
-0.35 -0.0500002 0.00109993
-0.3375 -0.0500002 0.00109993
-0.325 -0.0500002 0.00109993
-0.3125 -0.0500002 0.00109993
-0.3 -0.0500002 0.00109993
-0.2875 -0.0500002 0.00109993
-0.275 -0.0500002 0.00109993
-0.2625 -0.0500002 0.00109992
-0.25 -0.0500002 0.00109992
-0.2375 -0.0500002 0.00109992
-0.225 -0.0500002 0.00109992
-0.2125 -0.0500002 0.00109992
-0.2 -0.0500002 0.00109992
-0.1875 -0.0500002 0.00109992
-0.175 -0.0500002 0.00109992
-0.1625 -0.0500002 0.00109991
-0.15 -0.0500002 0.00109991
-0.1375 -0.0500002 0.00109991
-0.125 -0.0500002 0.00109991
-0.1125 -0.0500002 0.00109991
-0.1 -0.0500002 0.00109991
-0.0875 -0.0500002 0.00109991
-0.075 -0.0500002 0.00109991
-0.0625 -0.0500002 0.00109991
-0.05 -0.0500003 0.00109991
-0.0375 -0.0500003 0.0010999
-0.025 -0.0500003 0.0010999
-0.0125 -0.0500003 0.0010999
2.10607e-13 -0.0500003 0.0010999
0.0125 -0.0500003 0.0010999
0.025 -0.0500003 0.0010999
0.0375 -0.0500003 0.0010999
0.05 -0.0500003 0.0010999
0.0625 -0.0500003 0.0010999
0.075 -0.0500003 0.0010999
0.0875 -0.0500003 0.0010999
0.1 -0.0500003 0.00109989
0.1125 -0.0500003 0.00109989
0.125 -0.0500003 0.00109989
0.1375 -0.0500003 0.00109989
0.15 -0.0500003 0.00109989
0.1625 -0.0500003 0.00109989
0.175 -0.0500003 0.00109989
0.1875 -0.0500003 0.00109989
0.2 -0.0500003 0.00109989
0.2125 -0.0500003 0.00109989
0.225 -0.0500003 0.00109989
0.2375 -0.0500003 0.00109989
0.25 -0.0500003 0.00109989
0.2625 -0.0500003 0.00109988
0.275 -0.0500003 0.00109988
0.2875 -0.0500003 0.00109988
0.3 -0.0500003 0.00109988
0.3125 -0.0500003 0.00109988
0.325 -0.0500003 0.00109988
0.3375 -0.0500003 0.00109988
0.35 -0.0500003 0.00109988
0.3625 -0.0500003 0.00109988
0.375 -0.0500003 0.00109988
0.3875 -0.0500003 0.00109988
0.4 -0.0500004 0.00109988
0.4125 -0.0500004 0.00109988
0.425 -0.0500004 0.00109988
0.4375 -0.0500004 0.00109988
0.45 -0.0500004 0.00109988
0.4625 -0.0500004 0.00109988
0.475 -0.0500004 0.00109988
0.4875 -0.0500004 0.00109988
0.5 -0.0500004 0.00109988
0.5125 -0.0500004 0.00109988
0.525 -0.0500004 0.00109988
0.5375 -0.0500004 0.00109988
0.55 -0.0500004 0.00109988
0.5625 -0.0500004 0.00109988
0.575 -0.0500004 0.00109987
0.5875 -0.0500004 0.00109987
0.6 -0.0500004 0.00109987
0.6125 -0.0500004 0.00109987
0.625 -0.0500004 0.00109987
0.6375 -0.0500004 0.00109987
0.65 -0.0500004 0.00109987
0.6625 -0.0500004 0.00109987
0.675 -0.0500004 0.00109987
0.6875 -0.0500004 0.00109987
0.7 -0.0500004 0.00109987
0.7125 -0.0500004 0.00109987
0.725 -0.0500004 0.00109987
0.7375 -0.0500004 0.00109987
0.75 -0.0500004 0.00109987
0.7625 -0.0500004 0.00109987
0.775 -0.0500004 0.00109987
0.7875 -0.0500004 0.00109987
0.8 -0.0500004 0.00109987
0.8125 -0.0500004 0.00109987
0.825 -0.0500004 0.00109987
0.8375 -0.0500004 0.00109987
0.85 -0.0500004 0.00109987
0.8625 -0.0500004 0.00109987
0.875 -0.0500004 0.00109987
0.8875 -0.0500004 0.00109987
0.9 -0.0500004 0.00109987
0.9125 -0.0500005 0.00109988
0.925 -0.0500005 0.00109988
0.9375 -0.0500005 0.00109988
0.95 -0.0500005 0.00109988
0.9625 -0.0500005 0.00109988
0.975 -0.0500005 0.00109988
0.9875 -0.0500005 0.00109988
1 -0.0500005 0.00109988
1.0125 -0.0500005 0.00109988
1.025 -0.0500005 0.00109988
1.0375 -0.0500005 0.00109988
1.05 -0.0500005 0.00109988
1.0625 -0.0500005 0.00109988
1.075 -0.0500005 0.00109988
1.0875 -0.0500005 0.00109988
1.1 -0.0500005 0.00109988
1.1125 -0.0500005 0.00109988
1.125 -0.0500005 0.00109988
1.1375 -0.0500005 0.00109988
1.15 -0.0500005 0.00109988
1.1625 -0.0500005 0.00109988
1.175 -0.0500005 0.00109988
1.1875 -0.0500005 0.00109988
1.2 -0.0500005 0.00109988
1.2125 -0.0500005 0.00109988
1.225 -0.0500005 0.00109988
1.2375 -0.0500005 0.00109989
1.25 -0.0500005 0.00109989
1.2625 -0.0500005 0.00109989
1.275 -0.0500005 0.00109989
1.2875 -0.0500005 0.00109989
1.3 -0.0500005 0.00109989
1.3125 -0.0500005 0.00109989
1.325 -0.0500005 0.00109989
1.3375 -0.0500005 0.00109989
1.35 -0.0500005 0.00109989
1.3625 -0.0500005 0.00109989
1.375 -0.0500005 0.00109989
1.3875 -0.0500005 0.00109989
1.4 -0.0500005 0.00109989
1.4125 -0.0500005 0.00109989
1.425 -0.0500005 0.00109989
1.4375 -0.0500005 0.0010999
1.45 -0.0500005 0.0010999
1.4625 -0.0500005 0.0010999
1.475 -0.0500005 0.0010999
1.4875 -0.0500005 0.0010999
1.5 -0.0500006 0.0010999
1.5125 -0.0500006 0.0010999
1.525 -0.0500006 0.0010999
1.5375 -0.0500006 0.0010999
1.55 -0.0500006 0.0010999
1.5625 -0.0500006 0.0010999
1.575 -0.0500006 0.0010999
1.5875 -0.0500006 0.0010999
1.6 -0.0500006 0.0010999
1.6125 -0.0500006 0.00109991
1.625 -0.0500006 0.00109991
1.6375 -0.0500006 0.00109991
1.65 -0.0500006 0.00109991
1.6625 -0.0500006 0.00109991
1.675 -0.0500006 0.00109991
1.6875 -0.0500006 0.00109991
1.7 -0.0500006 0.00109991
1.7125 -0.0500006 0.00109991
1.725 -0.0500006 0.00109991
1.7375 -0.0500006 0.00109991
1.75 -0.0500006 0.00109991
1.7625 -0.0500006 0.00109992
1.775 -0.0500006 0.00109992
1.7875 -0.0500006 0.00109992
1.8 -0.0500006 0.00109992
1.8125 -0.0500006 0.00109992
1.825 -0.0500006 0.00109992
1.8375 -0.0500006 0.00109992
1.85 -0.0500006 0.00109992
1.8625 -0.0500006 0.00109992
1.875 -0.0500006 0.00109992
1.8875 -0.0500006 0.00109992
1.9 -0.0500006 0.00109992
1.9125 -0.0500006 0.00109993
1.925 -0.0500006 0.00109993
1.9375 -0.0500006 0.00109993
1.95 -0.0500006 0.00109993
1.9625 -0.0500006 0.00109993
1.975 -0.0500006 0.00109993
1.9875 -0.0500006 0.00109993
2 -0.0500006 0.00109993
2.0125 -0.0500006 0.00109993
2.025 -0.0500006 0.00109993
2.0375 -0.0500006 0.00109993
2.05 -0.0500006 0.00109993
2.0625 -0.0500006 0.00109994
2.075 -0.0500006 0.00109994
2.0875 -0.0500006 0.00109994
2.1 -0.0500006 0.00109994
2.1125 -0.0500006 0.00109994
2.125 -0.0500006 0.00109994
2.1375 -0.0500006 0.00109994
2.15 -0.0500006 0.00109994
2.1625 -0.0500006 0.00109994
2.175 -0.0500007 0.00109994
2.1875 -0.0500007 0.00109994
2.2 -0.0500007 0.00109994
2.2125 -0.0500007 0.00109994
2.225 -0.0500007 0.00109995
2.2375 -0.0500007 0.00109995
2.25 -0.0500007 0.00109995
2.2625 -0.0500007 0.00109995
2.275 -0.0500007 0.00109995
2.2875 -0.0500007 0.00109995
2.3 -0.0500007 0.00109995
2.3125 -0.0500007 0.00109995
2.325 -0.0500007 0.00109995
2.3375 -0.0500007 0.00109995
2.35 -0.0500007 0.00109995
2.3625 -0.0500007 0.00109995
2.375 -0.0500007 0.00109995
2.3875 -0.0500007 0.00109996
2.4 -0.0500007 0.00109996
2.4125 -0.0500007 0.00109996
2.425 -0.0500007 0.00109996
2.4375 -0.0500007 0.00109996
2.45 -0.0500007 0.00109996
2.4625 -0.0500007 0.00109996
2.475 -0.0500007 0.00109996
2.4875 -0.0500007 0.00109996
2.5 -0.0500007 0.00109996
2.5125 -0.0500007 0.00109996
2.525 -0.0500007 0.00109996
2.5375 -0.0500007 0.00109996
2.55 -0.0500007 0.00109996
2.5625 -0.0500007 0.00109997
2.575 -0.0500007 0.00109997
2.5875 -0.0500007 0.00109997
2.6 -0.0500007 0.00109997
2.6125 -0.0500007 0.00109997
2.625 -0.0500007 0.00109997
2.6375 -0.0500007 0.00109997
2.65 -0.0500007 0.00109997
2.6625 -0.0500007 0.00109997
2.675 -0.0500007 0.00109997
2.6875 -0.0500007 0.00109997
2.7 -0.0500007 0.00109997
2.7125 -0.0500007 0.00109997
2.725 -0.0500007 0.00109997
2.7375 -0.0500007 0.00109997
2.75 -0.0500007 0.00109997
2.7625 -0.0500007 0.00109998
2.775 -0.0500007 0.00109998
2.7875 -0.0500007 0.00109998
2.8 -0.0500007 0.00109998
2.8125 -0.0500007 0.00109998
2.825 -0.0500007 0.00109998
2.8375 -0.0500007 0.00109998
2.85 -0.0500007 0.00109998
2.8625 -0.0500008 0.00109998
2.875 -0.0500008 0.00109998
2.8875 -0.0500008 0.00109998
2.9 -0.0500008 0.00109998
2.9125 -0.0500008 0.00109998
2.925 -0.0500008 0.00109998
2.9375 -0.0500008 0.00109998
2.95 -0.0500008 0.00109998
2.9625 -0.0500008 0.00109998
2.975 -0.0500008 0.00109998
2.9875 -0.0500008 0.00109998
3 -0.0500008 0.00109998
3.0125 -0.0500008 0.00109999
3.025 -0.0500008 0.00109999
3.0375 -0.0500008 0.00109999
3.05 -0.0500008 0.00109999
3.0625 -0.0500008 0.00109999
3.075 -0.0500008 0.00109999
3.0875 -0.0500008 0.00109999
3.1 -0.0500008 0.00109999
3.1125 -0.0500008 0.00109999
3.125 -0.0500008 0.00109999
3.1375 -0.0500008 0.00109999
3.15 -0.0500008 0.00109999
3.1625 -0.0500008 0.00109999
3.175 -0.0500008 0.00109999
3.1875 -0.0500008 0.00109999
3.2 -0.0500008 0.00109999
3.2125 -0.0500008 0.00109999
3.225 -0.0500008 0.00109999
3.2375 -0.0500008 0.00109999
3.25 -0.0500008 0.00109999
3.2625 -0.0500008 0.00109999
3.275 -0.0500008 0.00109999
3.2875 -0.0500008 0.00109999
3.3 -0.0500008 0.00109999
3.3125 -0.0500008 0.00109999
3.325 -0.0500008 0.00109999
3.3375 -0.0500008 0.00109999
3.35 -0.0500008 0.0011
3.3625 -0.0500008 0.0011
[...]
POINT_DATA 15780
 FIELD attributes 2
p 1 15780 float
-0.0310977 -0.0311138 -0.0311298 -0.0311459 -0.0311619 -0.0311779 -0.0321094 -0.0330331 -0.0339569 -0.0348806 -0.035901 -0.0369649 -0.0380313 -0.0390976 -0.040164 -0.0411837 -0.0421671 -0.0431319 -0.0440967 -0.0450615 -0.0459747 -0.0468725 -0.047775 -0.0486776 -0.0495801 -0.0504769 -0.0513775 -0.052279 -0.0531805 -0.054082 -0.0549828 -0.0558903 -0.0567983 -0.0577062 -0.0586142 -0.0595217 -0.0604212 -0.0613187 -0.0622162 -0.0631137 -0.0640083 -0.0648874 -0.0657645 -0.0666417 -0.0675189 -0.0683939 -0.0692513 -0.0701066 -0.0709619 -0.0718172 -0.0726706 -0.0735052 -0.0743373 -0.0751693 -0.0760013 -0.0768311 -0.0776393 -0.0784445 -0.0792497 -0.0800548 -0.0808571 -0.0816353 -0.0824095 -0.0831838 -0.0839581 -0.0847288 -0.0854729 -0.0862128 -0.0869528 -0.0876927 -0.0884288 -0.0891361 -0.0898387 -0.0905412 -0.0912438 -0.0919418 -0.0926091 -0.0932712 -0.0939334 -0.0945955 -0.0952527 -0.0958772 -0.096496 -0.0971149 -0.0977337 -0.098347 -0.098926 -0.0994992 -0.100072 -0.100646 -0.101213 -0.101745 -0.102272 -0.102798 -0.103324 -0.103844 -0.104329 -0.104806 -0.105284 -0.105762 -0.106233 -0.106667 -0.107094 -0.107521 -0.107947 -0.108367 -0.108747 -0.10912 -0.109493 -0.109866 -0.110231 -0.110556 -0.110873 -0.11119 -0.111507 -0.111816 -0.112084 -0.112344 -0.112605 -0.112865 -0.113117 -0.113327 -0.11353 -0.113733 -0.113936 -0.11413 -0.114282 -0.114427 -0.114571 -0.114715 -0.11485 -0.114943 -0.115029 -0.115114 -0.1152 -0.115277 -0.115314 -0.115342 -0.115371 -0.1154 -0.115421 -0.115403 -0.115378 -0.115352 -0.115327 -0.115294 -0.115224 -0.115146 -0.115068 -0.11499 -0.114905 -0.114783 -0.114653 -0.114524 -0.114394 -0.114257 -0.114083 -0.113902 -0.113721 -0.11354 -0.113351 -0.113128 -0.112897 -0.112667 -0.112436 -0.112199 -0.111928 -0.111652 -0.111375 -0.111098 -0.110814 -0.1105 -0.110179 -0.109859 -0.109538 -0.109211 -0.108854 -0.108492 -0.108129 -0.107767 -0.107398 -0.107001 -0.106599 -0.106198 -0.105796 -0.105388 -0.104955 -0.104516 -0.104078 -0.10364 -0.103196 -0.10273 -0.102259 -0.101789 -0.101318 -0.100843 -0.100349 -0.099851 -0.099353 -0.0988549 -0.0983527 -0.0978339 -0.0973114 -0.096789 -0.0962665 -0.0957403 -0.0951993 -0.0946549 -0.0941106 -0.0935662 -0.0930181 -0.0924572 -0.0918934 -0.0913296 -0.0907658 -0.0901989 -0.0896212 -0.089041 -0.0884609 -0.0878807 -0.0872976 -0.0867061 -0.0861127 -0.0855193 -0.0849259 -0.0843302 -0.0837284 -0.0831248 -0.0825213 -0.0819178 -0.0813122 -0.0807025 -0.0800917 -0.0794809 -0.0788701 -0.0782578 -0.0776434 -0.077028 -0.0764126 -0.0757972 -0.0751805 -0.0745635 -0.0739461 -0.0733287 -0.0727113 -0.0720931 -0.0714764 -0.0708594 -0.0702424 -0.0696254 -0.0690079 -0.0683933 -0.0677789 -0.0671646 -0.0665503 -0.0659359 -0.0653258 -0.0647161 -0.0641064 -0.0634967 -0.0628871 -0.0622832 -0.0616799 -0.0610767 -0.0604735 -0.0598708 -0.0592749 -0.0586799 -0.0580849 -0.0574899 -0.0568955 -0.056309 -0.0557237 -0.0551385 -0.0545532 -0.053969 -0.0533935 -0.0528194 -0.0522453 -0.0516711 -0.0510981 -0.0505347 -0.049973 -0.0494112 -0.0488494 -0.0482891 -0.0477391 -0.0471907 -0.0466423 -0.046094 -0.0455471 -0.0450112 -0.0444771 -0.0439431 -0.043409 -0.0428768 -0.0423559 -0.0418369 -0.041318 -0.0407991 -0.0402819 -0.0397766 -0.0392734 -0.0387702 -0.038267 -0.0377657 -0.0372766 -0.0367897 -0.0363027 -0.0358157 -0.0353308 -0.0348582 -0.0343878 -0.0339174 -0.0334471 -0.0329789 -0.0325232 -0.0320697 -0.0316162 -0.0311628 -0.0307115 -0.0302727 -0.0298363 -0.0293999 -0.0289634 -0.0285294 -0.0281077 -0.0276883 -0.027269 -0.0268497 -0.0264327 -0.026028 -0.0256258 -0.0252236 -0.0248213 -0.0244215 -0.024034 -0.0236489 -0.0232638 -0.0228786 -0.0224959 -0.0221255 -0.0217576 -0.0213898 -0.0210219 -0.0206564 -0.0203032 -0.0199525 -0.0196017 -0.019251 -0.0189026 -0.0185659 -0.0182319 -0.0178979 -0.0175639 -0.0172323 -0.016912 -0.0165941 -0.0162762 -0.0159583 -0.0156428 -0.0153383 -0.0150359 -0.0147336 -0.0144313 -0.0141315 -0.0138421 -0.0135551 -0.013268 -0.012981 -0.0126965 -0.0124222 -0.0121501 -0.011878 -0.0116059 -0.0113361 -0.0110764 -0.0108189 -0.0105615 -0.010304 -0.0100488 -0.00980353 -0.00956037 -0.00931722 -0.00907406 -0.00883311 -0.00860163 -0.0083722 -0.00814276 -0.00791333 -0.00768598 -0.00746762 -0.00725138 -0.00703513 -0.00681888 -0.00660472 -0.00639919 -0.00619569 -0.00599219 -0.0057887 -0.0055872 -0.00539397 -0.00520286 -0.00501175 -0.00482064 -0.00463162 -0.00445058 -0.00427164 -0.00409271 -0.00391378 -0.00373689 -0.00356766 -0.00340048 -0.0032333 -0.00306611 -0.00290098 -0.00274293 -0.00258675 -0.00243058 -0.0022744 -0.00212026 -0.00197275 -0.00182677 -0.00168079 -0.0015348 -0.0013906 -0.00125264 -0.00111628 -0.000979924 -0.000843566 -0.000708982 -0.000580307 -0.000453242 -0.000326176 -0.000199111 -7.36903e-05 4.59781e-05 0.000164031 0.000282084 0.000400137 0.000516572 0.000627559 0.00073696 0.000846361 0.000955763 0.00106354 0.00116628 0.00126747 0.00136866 0.00146985 0.00156945 0.00166434 0.00175777 0.00185121 0.00194464 0.00203656 0.0021241 0.0022102 0.00229631 0.00238242 0.00246704 0.00254755 0.00262672 0.0027059 0.00278507 0.00286284 0.00293678 0.00300941 0.00308203 0.00315466 0.00322589 0.00329359 0.00336004 0.00342649 0.00349294 0.00355809 0.00361995 0.00368058 0.00374122 0.00380185 0.00386121 0.00391753 0.00397271 0.00402789 0.00408307 0.00413704 0.00418824 0.00423829 0.00428835 0.0043384 0.00438726 0.00443356 0.0044788 0.00452403 0.00456927 0.00461337 0.00465514 0.00469584 0.00473655 0.00477725 0.00481685 0.0048543 0.00489077 0.00492723 0.0049637 0.00499912 0.00503262 0.00506513 0.00509764 0.00513015 0.00516161 0.00519135 0.00522016 0.00524897 0.00527779 0.00530563 0.00533191 0.00535728 0.00538264 0.00540801 0.00543241 0.00545542 0.00547758 0.00549974 0.0055219 0.00554315 0.00556318 0.00558237 0.00560156 0.00562074 0.00563903 0.00565625 0.00567269 0.00568912 0.00570556 0.00572115 0.00573583 0.00574972 0.00576361 0.0057775 0.00579056 0.00580283 0.00581437 0.00582591 0.00583745 0.00584822 0.00585832 0.0058677 0.00587708 0.00588645 0.00589506 0.00590313 0.00591052 0.00591791 0.0059253 0.00593198 0.00593822 0.0059438 0.00594937 0.00595494 0.0059598 0.00596434 0.00596826 0.00597218 0.00597609 0.00597934 0.00598238 0.00598479 0.0059872 0.00598961 0.00599135 0.00599298 0.00599402 0.00599507 0.00599611 0.00599652 0.00599692 0.00599672 0.00599652 0.00599632 0.0059955 0.00599474 0.00599343 0.00599212 0.00599082 0.00598893 0.00598719 0.0059849 0.00598261 0.00598032 0.00597744 0.00597479 0.00597162 0.00596845 0.00596528 0.00596157 0.00595814 0.00595419 0.00595025 0.00594631 0.00594182 0.00593769 0.00593308 0.00592847 0.00592386 0.00591874 0.00591405 0.00590887 0.0059037 0.00589852 0.00589283 0.00588765 0.005882 0.00587635 0.00587071 0.00586457 0.00585901 0.00585297 0.00584694 0.00584091 0.0058344 0.00582851 0.00582218 0.00581585 0.00580952 0.00580273 0.00579662 0.00579007 0.00578352 0.00577697 0.00576997 0.0057637 0.00575701 0.00575032 0.00574363 0.0057365 0.00573016 0.00572341 0.00571665 0.00570989 0.00570271 0.00569636 0.0056896 0.00568285 0.0056761 0.00566893 0.00566265 0.00565597 0.00564929 0.00564261 0.00563552 0.00562936 0.00562282 0.00561628 0.00560973 0.00560279 0.00559683 0.00559049 0.00558414 0.0055778 0.00557107 0.00556536 0.00555928 0.00555319 0.00554711 0.00554063 0.00553524 0.00552947 0.00552369 0.00551792 0.00551177 0.00550674 0.00550133 0.00549592 0.00549051 0.00548472 0.00548009 0.00547507 0.00547006 0.00546505 0.00545968 0.00545548 0.00545089 0.00544631 0.00544172 0.00543675 0.00543298 0.00542881 0.00542464 0.00542047 0.00541594 0.00541255 0.00540874 0.00540493 0.00540112 0.00539691 0.00539371 0.00539007 0.00538643 0.00538279 0.00537873 0.00537532 0.0053714 0.00536749 0.00536358 0.00535918 0.00535427 0.00534855 0.00534282 0.0053371 0.00533059 0.00532181 0.0053126 0.0053034 0.00529419 0.0052845 0.00525837 0.00522672 0.00519507 0.00516342 0.00512688 0.0051154 0.00511806 0.00512071 0.00512337 0.00514899 0.00523259 0.00530863 0.005388 0.00545096 0.00549658 0.00548955 0.00548572 0.00548189 0.00547808 0.00547655 0.00550343 0.00553111 0.0055588 0.00557847 0.00559943 0.00561336 0.00563221 0.00565109 0.00566997 0.0056843 0.00574719 0.0058122 0.00587721 0.00594222 0.00599873 0.00609016 0.00616627 0.00624238 0.00631848 0.00632362 0.00630899 0.00628961 0.00627023 0.00625084 0.00624096 0.0060401 0.00581853 0.00559696 0.0053754 0.00504801 0.00456801 0.00407412 0.00358023 0.00308633 0.00262223 0.00235245 0.00207513 0.00179781 0.00152049 0.00127314 0.00117452 0.00106948 0.000964434 0.000859389 0.000773723 0.00066779 0.0005563 0.000444809 0.000333317 0.00025531
-0.0319471 -0.0319662 -0.0319853 -0.0320044 -0.0320235 -0.0320426 -0.0327435 -0.0336211 -0.0344038 -0.0351662 -0.0362245 -0.0372612 -0.0382516 -0.039254 -0.0403134 -0.0412974 -0.0422586 -0.0432246 -0.0441652 -0.0451005 -0.0460064 -0.0469045 -0.0478105 -0.0487164 -0.0496216 -0.0505266 -0.0514183 -0.0523221 -0.0532308 -0.0541405 -0.0550609 -0.055966 -0.0568782 -0.05779 -0.0586995 -0.0596146 -0.0605159 -0.0614142 -0.0623138 -0.0632137 -0.0641099 -0.0649909 -0.0658709 -0.0667505 -0.0676281 -0.068504 -0.0693622 -0.0702178 -0.0710761 -0.0719348 -0.0727913 -0.0736254 -0.0744608 -0.0752956 -0.076128 -0.0769616 -0.0777689 -0.0785743 -0.079382 -0.0801902 -0.080997 -0.0817727 -0.0825498 -0.0833265 -0.0841009 -0.0848768 -0.0856176 -0.0863577 -0.0870999 -0.0878427 -0.0885851 -0.0892874 -0.0899926 -0.0906974 -0.0914 -0.0921054 -0.0927667 -0.0934289 -0.094093 -0.0947576 -0.0954235 -0.0960404 -0.0966614 -0.0972821 -0.0979009 -0.0985236 -0.0990927 -0.0996657 -0.10024 -0.100816 -0.101395 -0.101914 -0.102441 -0.102969 -0.103495 -0.10403 -0.104502 -0.104979 -0.105458 -0.105936 -0.106421 -0.106844 -0.10727 -0.107697 -0.108124 -0.108555 -0.108925 -0.109298 -0.10967 -0.110043 -0.110418 -0.110733 -0.111049 -0.111366 -0.111683 -0.112001 -0.11226 -0.112521 -0.11278 -0.113039 -0.113299 -0.113502 -0.113704 -0.113906 -0.114108 -0.11431 -0.114455 -0.114599 -0.114742 -0.114886 -0.115029 -0.115112 -0.115197 -0.115283 -0.115368 -0.115455 -0.11548 -0.115508 -0.115537 -0.115566 -0.115599 -0.115567 -0.115541 -0.115515 -0.115489 -0.115469 -0.115385 -0.115307 -0.115228 -0.115148 -0.115075 -0.114939 -0.114806 -0.114673 -0.114543 -0.114416 -0.114229 -0.114048 -0.113863 -0.113679 -0.113499 -0.113263 -0.113029 -0.112796 -0.112565 -0.112335 -0.112053 -0.111776 -0.111496 -0.111216 -0.110939 -0.110614 -0.11029 -0.109966 -0.109645 -0.109324 -0.108959 -0.108597 -0.108232 -0.107866 -0.107503 -0.107099 -0.106695 -0.106291 -0.10589 -0.105486 -0.105046 -0.104607 -0.104167 -0.103727 -0.103289 -0.102812 -0.102339 -0.101867 -0.101395 -0.100927 -0.100422 -0.0999233 -0.0994221 -0.0989205 -0.0984254 -0.0978963 -0.0973701 -0.0968444 -0.0963215 -0.0958012 -0.0952516 -0.0947069 -0.0941595 -0.0936116 -0.0930685 -0.0925 -0.0919329 -0.0913664 -0.0908022 -0.0902391 -0.0896545 -0.089074 -0.0884912 -0.0879078 -0.0873284 -0.0867306 -0.0861342 -0.0855382 -0.0849445 -0.0843518 -0.0837441 -0.0831403 -0.0825343 -0.0819279 -0.0813251 -0.0807103 -0.0800968 -0.0794836 -0.0788725 -0.0782624 -0.0776432 -0.0770276 -0.07641 -0.075792 -0.0751773 -0.0745563 -0.0739365 -0.073317 -0.0726993 -0.0720826 -0.0714622 -0.070845 -0.0702262 -0.069607 -0.0689908 -0.0683733 -0.067757 -0.067141 -0.0665264 -0.0659129 -0.0653002 -0.0646904 -0.0640791 -0.0634676 -0.0628587 -0.0622527 -0.0616478 -0.0610432 -0.0604399 -0.0598374 -0.0592398 -0.0586446 -0.0580484 -0.0574519 -0.0568577 -0.0562699 -0.0556833 -0.055097 -0.0545116 -0.0539272 -0.0533508 -0.0527766 -0.0522015 -0.0516262 -0.0510529 -0.050489 -0.0499262 -0.0493636 -0.0488018 -0.0482408 -0.0476906 -0.0471421 -0.0465931 -0.0460438 -0.0454964 -0.0449605 -0.0444258 -0.0438912 -0.0433571 -0.0428239 -0.0423034 -0.0417844 -0.041265 -0.0407455 -0.0402274 -0.0397227 -0.0392191 -0.0387155 -0.0382123 -0.0377099 -0.0372216 -0.0367347 -0.0362474 -0.0357601 -0.0352741 -0.0348025 -0.0343319 -0.0338614 -0.033391 -0.0329216 -0.032467 -0.0320136 -0.03156 -0.0311065 -0.0306539 -0.0302165 -0.0297801 -0.0293436 -0.0289073 -0.0284718 -0.0280516 -0.0276323 -0.0272131 -0.0267939 -0.0263755 -0.0259725 -0.0255704 -0.0251683 -0.0247661 -0.0243649 -0.0239789 -0.0235938 -0.0232088 -0.0228239 -0.0224399 -0.0220709 -0.0217033 -0.0213356 -0.0209678 -0.0206011 -0.0202492 -0.0198985 -0.019548 -0.0191975 -0.0188482 -0.0185128 -0.0181788 -0.0178449 -0.017511 -0.0171783 -0.0168597 -0.0165419 -0.0162242 -0.0159065 -0.0155898 -0.0152873 -0.0149853 -0.0146833 -0.0143811 -0.0140794 -0.0137929 -0.0135059 -0.0132192 -0.0129326 -0.0126457 -0.0123743 -0.0121027 -0.011831 -0.0115589 -0.0112867 -0.0110297 -0.0107722 -0.0105152 -0.0102582 -0.0100007 -0.00975792 -0.00951522 -0.00927245 -0.00902934 -0.00878643 -0.00855744 -0.0083281 -0.00809915 -0.00787029 -0.00764095 -0.00742527 -0.00720975 -0.00699412 -0.00677799 -0.00656212 -0.00635903 -0.00615564 -0.00595278 -0.00575003 -0.00554699 -0.00535601 -0.00516564 -0.00497515 -0.00478412 -0.00459364 -0.00441449 -0.00423561 -0.00405714 -0.00387875 -0.00370073 -0.00353272 -0.00336578 -0.00319879 -0.00303165 -0.00286532 -0.0027087 -0.00255259 -0.00239658 -0.0022406 -0.00208527 -0.00193957 -0.00179399 -0.00164836 -0.0015025 -0.00135693 -0.00122151 -0.00108528 -0.00094944 -0.00081368 -0.000677159 -0.000551194 -0.000424793 -0.000298291 -0.000171338 -4.40962e-05 7.31755e-05 0.000191143 0.000308671 0.000426101 0.000544269 0.000653087 0.00076194 0.00087088 0.000980213 0.00108956 0.00119028 0.0012914 0.00139218 0.00149287 0.00159394 0.00168694 0.0017799 0.00187294 0.00196631 0.00205961 0.00214527 0.00223131 0.00231703 0.00240267 0.00248864 0.00256739 0.0026461 0.00272488 0.00280398 0.00288303 0.00295519 0.00302775 0.00309999 0.00317214 0.00324463 0.00331069 0.0033767 0.00344278 0.00350917 0.00357549 0.00363573 0.00369631 0.00375661 0.00381685 0.00387736 0.00393216 0.00398699 0.00404187 0.004097 0.00415213 0.00420175 0.00425175 0.00430151 0.00435122 0.00440124 0.00444603 0.0044909 0.00453583 0.00458101 0.00462626 0.00466648 0.00470713 0.00474754 0.0047879 0.00482862 0.00486462 0.00490075 0.00493694 0.00497335 0.00500989 0.00504189 0.00507435 0.00510659 0.00513878 0.00517136 0.00519969 0.00522819 0.00525675 0.00528551 0.00531445 0.0053393 0.00536462 0.00538974 0.00541482 0.0054403 0.00546197 0.00548385 0.00550578 0.0055279 0.00555021 0.00556888 0.00558802 0.00560699 0.00562591 0.00564525 0.00566118 0.00567735 0.00569357 0.00570997 0.0057266 0.00573995 0.0057538 0.00576749 0.00578113 0.00579521 0.00580624 0.00581755 0.00582889 0.0058404 0.00585217 0.005861 0.00587034 0.00587953 0.00588869 0.0058983 0.00590516 0.00591234 0.00591955 0.00592691 0.00593457 0.00593959 0.00594513 0.00595054 0.00595591 0.00596176 0.00596513 0.00596886 0.00597262 0.0059765 0.00598073 0.00598257 0.00598495 0.00598721 0.00598944 0.00599217 0.00599266 0.00599353 0.00599443 0.00599544 0.00599683 0.00599604 0.00599582 0.00599548 0.00599512 0.00599527 0.00599338 0.00599193 0.00599049 0.00598916 0.00598825 0.00598538 0.00598307 0.00598065 0.00597821 0.00597629 0.00597256 0.00596925 0.00596596 0.00596277 0.00595998 0.00595546 0.0059515 0.00594745 0.00594337 0.00593981 0.00593464 0.0059299 0.00592519 0.00592056 0.00591637 0.00591061 0.00590542 0.00590015 0.00589486 0.00589009 0.00588388 0.00587813 0.00587239 0.00586673 0.00586152 0.00585491 0.00584886 0.00584275 0.00583662 0.00583102 0.00582412 0.0058177 0.00581129 0.00580494 0.00579907 0.00579194 0.00578537 0.00577875 0.00577212 0.00576603 0.00575876 0.00575199 0.00574523 0.00573853 0.00573233 0.00572498 0.00571821 0.00571139 0.00570456 0.00569829 0.00569096 0.00568414 0.00567733 0.00567056 0.00566432 0.00565704 0.00565035 0.00564362 0.00563687 0.0056307 0.00562357 0.00561698 0.00561039 0.00560383 0.00559782 0.00559088 0.00558452 0.00557814 0.00557175 0.00556594 0.00555927 0.00555314 0.00554703 0.00554093 0.0055354 0.00552903 0.00552325 0.00551745 0.00551165 0.00550644 0.00550044 0.00549502 0.00548959 0.00548418 0.00547936 0.00547374 0.00546873 0.00546372 0.00545872 0.00545432 0.00544915 0.0054446 0.00544005 0.00543546 0.00543154 0.00542677 0.00542261 0.00541853 0.00541446 0.005411 0.00540663 0.00540304 0.00539941 0.00539562 0.00539264 0.00538848 0.00538489 0.00538166 0.00537851 0.00537595 0.00537162 0.00536881 0.00536581 0.00536203 0.00535976 0.00535443 0.00534918 0.00534619 0.00534373 0.00534129 0.00533225 0.00533052 0.0053276 0.00531966 0.00531862 0.0053043 0.00527973 0.00527522 0.00527544 0.0052647 0.00522181 0.00523338 0.00524375 0.00524902 0.00531713 0.00541059 0.00547415 0.00553773 0.0055757 0.00552939 0.00551018 0.00550314 0.00549609 0.0054886 0.00549259 0.00551014 0.0055283 0.00554647 0.00555817 0.00556943 0.00557049 0.00557154 0.00557259 0.00557352 0.00557421 0.00559905 0.005628 0.00565704 0.00568607 0.00565945 0.00569761 0.00576025 0.00582326 0.00588628 0.00596627 0.00618055 0.00626956 0.00635202 0.00642813 0.0063212 0.00635706 0.00633768 0.00632123 0.00631176 0.00625639 0.00620984 0.00598827 0.0057667 0.00553255 0.00503895 0.00469932 0.00420543 0.00371153 0.00321496 0.00259615 0.00241451 0.00213719 0.00185987 0.00158255 0.00124274 0.00122362 0.00111858 0.00101353 0.000908488 0.000751292 0.00071528 0.000603791 0.000492302 0.000380813 0.000206783