# vtk DataFile Version 2.0
track0
ASCII
DATASET POLYDATA
POINTS 15780 float
-1.001 -0.05 0.0011
-1.0008 -0.05 0.0011
-1.0006 -0.05 0.0011
-1.0004 -0.05 0.0011
-1.0002 -0.05 0.0011
-1 -0.05 0.0011
-0.9875 -0.05 0.0011
-0.975 -0.05 0.0011
-0.9625 -0.05 0.0011
-0.95 -0.05 0.0011
-0.9375 -0.05 0.00109999
-0.925 -0.05 0.00109999
-0.9125 -0.05 0.00109999
-0.9 -0.05 0.00109999
-0.8875 -0.05 0.00109999
-0.875 -0.05 0.00109999
-0.8625 -0.05 0.00109999
-0.85 -0.05 0.00109999
-0.8375 -0.05 0.00109998
-0.825 -0.0500001 0.00109998
-0.8125 -0.0500001 0.00109998
-0.8 -0.0500001 0.00109998
-0.7875 -0.0500001 0.00109998
-0.775 -0.0500001 0.00109998
-0.7625 -0.0500001 0.00109998
-0.75 -0.0500001 0.00109998
-0.7375 -0.0500001 0.00109997
-0.725 -0.0500001 0.00109997
-0.7125 -0.0500001 0.00109997
-0.7 -0.0500001 0.00109997
-0.6875 -0.0500001 0.00109997
-0.675 -0.0500001 0.00109997
-0.6625 -0.0500001 0.00109997
-0.65 -0.0500001 0.00109996
-0.6375 -0.0500001 0.00109996
-0.625 -0.0500001 0.00109996
-0.6125 -0.0500001 0.00109996
-0.6 -0.0500001 0.00109996
-0.5875 -0.0500001 0.00109996
-0.575 -0.0500001 0.00109996
-0.5625 -0.0500001 0.00109996
-0.55 -0.0500001 0.00109995
-0.5375 -0.0500001 0.00109995
-0.525 -0.0500001 0.00109995
-0.5125 -0.0500001 0.00109995
-0.5 -0.0500001 0.00109995
-0.4875 -0.0500001 0.00109995
-0.475 -0.0500001 0.00109995
-0.4625 -0.0500001 0.00109994
-0.45 -0.0500002 0.00109994
-0.4375 -0.0500002 0.00109994
-0.425 -0.0500002 0.00109994
-0.4125 -0.0500002 0.00109994
-0.4 -0.0500002 0.00109994
-0.3875 -0.0500002 0.00109994
-0.375 -0.0500002 0.00109994
-0.3625 -0.0500002 0.00109993
-0.35 -0.0500002 0.00109993
-0.3375 -0.0500002 0.00109993
-0.325 -0.0500002 0.00109993
-0.3125 -0.0500002 0.00109993
-0.3 -0.0500002 0.00109993
-0.2875 -0.0500002 0.00109993
-0.275 -0.0500002 0.00109993
-0.2625 -0.0500002 0.00109992
-0.25 -0.0500002 0.00109992
-0.2375 -0.0500002 0.00109992
-0.225 -0.0500002 0.00109992
-0.2125 -0.0500002 0.00109992
-0.2 -0.0500002 0.00109992
-0.1875 -0.0500002 0.00109992
-0.175 -0.0500002 0.00109992
-0.1625 -0.0500002 0.00109991
-0.15 -0.0500002 0.00109991
-0.1375 -0.0500002 0.00109991
-0.125 -0.0500002 0.00109991
-0.1125 -0.0500002 0.00109991
-0.1 -0.0500002 0.00109991
-0.0875 -0.0500002 0.00109991
-0.075 -0.0500002 0.00109991
-0.0625 -0.0500002 0.00109991
-0.05 -0.0500003 0.00109991
-0.0375 -0.0500003 0.0010999
-0.025 -0.0500003 0.0010999
-0.0125 -0.0500003 0.0010999
2.10607e-13 -0.0500003 0.0010999
0.0125 -0.0500003 0.0010999
0.025 -0.0500003 0.0010999
0.0375 -0.0500003 0.0010999
0.05 -0.0500003 0.0010999
0.0625 -0.0500003 0.0010999
0.075 -0.0500003 0.0010999
0.0875 -0.0500003 0.0010999
0.1 -0.0500003 0.00109989
0.1125 -0.0500003 0.00109989
0.125 -0.0500003 0.00109989
0.1375 -0.0500003 0.00109989
0.15 -0.0500003 0.00109989
0.1625 -0.0500003 0.00109989
0.175 -0.0500003 0.00109989
0.1875 -0.0500003 0.00109989
0.2 -0.0500003 0.00109989
0.2125 -0.0500003 0.00109989
0.225 -0.0500003 0.00109989
0.2375 -0.0500003 0.00109989
0.25 -0.0500003 0.00109989
0.2625 -0.0500003 0.00109988
0.275 -0.0500003 0.00109988
0.2875 -0.0500003 0.00109988
0.3 -0.0500003 0.00109988
0.3125 -0.0500003 0.00109988
0.325 -0.0500003 0.00109988
0.3375 -0.0500003 0.00109988
0.35 -0.0500003 0.00109988
0.3625 -0.0500003 0.00109988
0.375 -0.0500003 0.00109988
0.3875 -0.0500003 0.00109988
0.4 -0.0500004 0.00109988
0.4125 -0.0500004 0.00109988
0.425 -0.0500004 0.00109988
0.4375 -0.0500004 0.00109988
0.45 -0.0500004 0.00109988
0.4625 -0.0500004 0.00109988
0.475 -0.0500004 0.00109988
0.4875 -0.0500004 0.00109988
0.5 -0.0500004 0.00109988
0.5125 -0.0500004 0.00109988
0.525 -0.0500004 0.00109988
0.5375 -0.0500004 0.00109988
0.55 -0.0500004 0.00109988
0.5625 -0.0500004 0.00109988
0.575 -0.0500004 0.00109987
0.5875 -0.0500004 0.00109987
0.6 -0.0500004 0.00109987
0.6125 -0.0500004 0.00109987
0.625 -0.0500004 0.00109987
0.6375 -0.0500004 0.00109987
0.65 -0.0500004 0.00109987
0.6625 -0.0500004 0.00109987
0.675 -0.0500004 0.00109987
0.6875 -0.0500004 0.00109987
0.7 -0.0500004 0.00109987
0.7125 -0.0500004 0.00109987
0.725 -0.0500004 0.00109987
0.7375 -0.0500004 0.00109987
0.75 -0.0500004 0.00109987
0.7625 -0.0500004 0.00109987
0.775 -0.0500004 0.00109987
0.7875 -0.0500004 0.00109987
0.8 -0.0500004 0.00109987
0.8125 -0.0500004 0.00109987
0.825 -0.0500004 0.00109987
0.8375 -0.0500004 0.00109987
0.85 -0.0500004 0.00109987
0.8625 -0.0500004 0.00109987
0.875 -0.0500004 0.00109987
0.8875 -0.0500004 0.00109987
0.9 -0.0500004 0.00109987
0.9125 -0.0500005 0.00109988
0.925 -0.0500005 0.00109988
0.9375 -0.0500005 0.00109988
0.95 -0.0500005 0.00109988
0.9625 -0.0500005 0.00109988
0.975 -0.0500005 0.00109988
0.9875 -0.0500005 0.00109988
1 -0.0500005 0.00109988
1.0125 -0.0500005 0.00109988
1.025 -0.0500005 0.00109988
1.0375 -0.0500005 0.00109988
1.05 -0.0500005 0.00109988
1.0625 -0.0500005 0.00109988
1.075 -0.0500005 0.00109988
1.0875 -0.0500005 0.00109988
1.1 -0.0500005 0.00109988
1.1125 -0.0500005 0.00109988
1.125 -0.0500005 0.00109988
1.1375 -0.0500005 0.00109988
1.15 -0.0500005 0.00109988
1.1625 -0.0500005 0.00109988
1.175 -0.0500005 0.00109988
1.1875 -0.0500005 0.00109988
1.2 -0.0500005 0.00109988
1.2125 -0.0500005 0.00109988
1.225 -0.0500005 0.00109988
1.2375 -0.0500005 0.00109989
1.25 -0.0500005 0.00109989
1.2625 -0.0500005 0.00109989
1.275 -0.0500005 0.00109989
1.2875 -0.0500005 0.00109989
1.3 -0.0500005 0.00109989
1.3125 -0.0500005 0.00109989
1.325 -0.0500005 0.00109989
1.3375 -0.0500005 0.00109989
1.35 -0.0500005 0.00109989
1.3625 -0.0500005 0.00109989
1.375 -0.0500005 0.00109989
1.3875 -0.0500005 0.00109989
1.4 -0.0500005 0.00109989
1.4125 -0.0500005 0.00109989
1.425 -0.0500005 0.00109989
1.4375 -0.0500005 0.0010999
1.45 -0.0500005 0.0010999
1.4625 -0.0500005 0.0010999
1.475 -0.0500005 0.0010999
1.4875 -0.0500005 0.0010999
1.5 -0.0500006 0.0010999
1.5125 -0.0500006 0.0010999
1.525 -0.0500006 0.0010999
1.5375 -0.0500006 0.0010999
1.55 -0.0500006 0.0010999
1.5625 -0.0500006 0.0010999
1.575 -0.0500006 0.0010999
1.5875 -0.0500006 0.0010999
1.6 -0.0500006 0.0010999
1.6125 -0.0500006 0.00109991
1.625 -0.0500006 0.00109991
1.6375 -0.0500006 0.00109991
1.65 -0.0500006 0.00109991
1.6625 -0.0500006 0.00109991
1.675 -0.0500006 0.00109991
1.6875 -0.0500006 0.00109991
1.7 -0.0500006 0.00109991
1.7125 -0.0500006 0.00109991
1.725 -0.0500006 0.00109991
1.7375 -0.0500006 0.00109991
1.75 -0.0500006 0.00109991
1.7625 -0.0500006 0.00109992
1.775 -0.0500006 0.00109992
1.7875 -0.0500006 0.00109992
1.8 -0.0500006 0.00109992
1.8125 -0.0500006 0.00109992
1.825 -0.0500006 0.00109992
1.8375 -0.0500006 0.00109992
1.85 -0.0500006 0.00109992
1.8625 -0.0500006 0.00109992
1.875 -0.0500006 0.00109992
1.8875 -0.0500006 0.00109992
1.9 -0.0500006 0.00109992
1.9125 -0.0500006 0.00109993
1.925 -0.0500006 0.00109993
1.9375 -0.0500006 0.00109993
1.95 -0.0500006 0.00109993
1.9625 -0.0500006 0.00109993
1.975 -0.0500006 0.00109993
1.9875 -0.0500006 0.00109993
2 -0.0500006 0.00109993
2.0125 -0.0500006 0.00109993
2.025 -0.0500006 0.00109993
2.0375 -0.0500006 0.00109993
2.05 -0.0500006 0.00109993
2.0625 -0.0500006 0.00109994
2.075 -0.0500006 0.00109994
2.0875 -0.0500006 0.00109994
2.1 -0.0500006 0.00109994
2.1125 -0.0500006 0.00109994
2.125 -0.0500006 0.00109994
2.1375 -0.0500006 0.00109994
2.15 -0.0500006 0.00109994
2.1625 -0.0500006 0.00109994
2.175 -0.0500007 0.00109994
2.1875 -0.0500007 0.00109994
2.2 -0.0500007 0.00109994
2.2125 -0.0500007 0.00109994
2.225 -0.0500007 0.00109995
2.2375 -0.0500007 0.00109995
2.25 -0.0500007 0.00109995
2.2625 -0.0500007 0.00109995
2.275 -0.0500007 0.00109995
2.2875 -0.0500007 0.00109995
2.3 -0.0500007 0.00109995
2.3125 -0.0500007 0.00109995
2.325 -0.0500007 0.00109995
2.3375 -0.0500007 0.00109995
2.35 -0.0500007 0.00109995
2.3625 -0.0500007 0.00109995
2.375 -0.0500007 0.00109995
2.3875 -0.0500007 0.00109996
2.4 -0.0500007 0.00109996
2.4125 -0.0500007 0.00109996
2.425 -0.0500007 0.00109996
2.4375 -0.0500007 0.00109996
2.45 -0.0500007 0.00109996
2.4625 -0.0500007 0.00109996
2.475 -0.0500007 0.00109996
2.4875 -0.0500007 0.00109996
2.5 -0.0500007 0.00109996
2.5125 -0.0500007 0.00109996
2.525 -0.0500007 0.00109996
2.5375 -0.0500007 0.00109996
2.55 -0.0500007 0.00109996
2.5625 -0.0500007 0.00109997
2.575 -0.0500007 0.00109997
2.5875 -0.0500007 0.00109997
2.6 -0.0500007 0.00109997
2.6125 -0.0500007 0.00109997
2.625 -0.0500007 0.00109997
2.6375 -0.0500007 0.00109997
2.65 -0.0500007 0.00109997
2.6625 -0.0500007 0.00109997
2.675 -0.0500007 0.00109997
2.6875 -0.0500007 0.00109997
2.7 -0.0500007 0.00109997
2.7125 -0.0500007 0.00109997
2.725 -0.0500007 0.00109997
2.7375 -0.0500007 0.00109997
2.75 -0.0500007 0.00109997
2.7625 -0.0500007 0.00109998
2.775 -0.0500007 0.00109998
2.7875 -0.0500007 0.00109998
2.8 -0.0500007 0.00109998
2.8125 -0.0500007 0.00109998
2.825 -0.0500007 0.00109998
2.8375 -0.0500007 0.00109998
2.85 -0.0500007 0.00109998
2.8625 -0.0500008 0.00109998
2.875 -0.0500008 0.00109998
2.8875 -0.0500008 0.00109998
2.9 -0.0500008 0.00109998
2.9125 -0.0500008 0.00109998
2.925 -0.0500008 0.00109998
2.9375 -0.0500008 0.00109998
2.95 -0.0500008 0.00109998
2.9625 -0.0500008 0.00109998
2.975 -0.0500008 0.00109998
2.9875 -0.0500008 0.00109998
3 -0.0500008 0.00109998
3.0125 -0.0500008 0.00109999
3.025 -0.0500008 0.00109999
3.0375 -0.0500008 0.00109999
3.05 -0.0500008 0.00109999
3.0625 -0.0500008 0.00109999
3.075 -0.0500008 0.00109999
3.0875 -0.0500008 0.00109999
3.1 -0.0500008 0.00109999
3.1125 -0.0500008 0.00109999
3.125 -0.0500008 0.00109999
3.1375 -0.0500008 0.00109999
3.15 -0.0500008 0.00109999
3.1625 -0.0500008 0.00109999
3.175 -0.0500008 0.00109999
3.1875 -0.0500008 0.00109999
3.2 -0.0500008 0.00109999
3.2125 -0.0500008 0.00109999
3.225 -0.0500008 0.00109999
3.2375 -0.0500008 0.00109999
3.25 -0.0500008 0.00109999
3.2625 -0.0500008 0.00109999
3.275 -0.0500008 0.00109999
3.2875 -0.0500008 0.00109999
3.3 -0.0500008 0.00109999
3.3125 -0.0500008 0.00109999
3.325 -0.0500008 0.00109999
3.3375 -0.0500008 0.00109999
3.35 -0.0500008 0.0011
3.3625 -0.0500008 0.0011
[...]
POINT_DATA 15780
 FIELD attributes 2
p 1 15780 float
-0.031098 -0.031114 -0.0311301 -0.0311461 -0.0311622 -0.0311782 -0.0321097 -0.0330334 -0.0339571 -0.0348809 -0.0359013 -0.0369652 -0.0380315 -0.0390979 -0.0401642 -0.0411839 -0.0421674 -0.0431322 -0.044097 -0.0450618 -0.0459749 -0.0468727 -0.0477753 -0.0486778 -0.0495804 -0.0504771 -0.0513777 -0.0522792 -0.0531807 -0.0540822 -0.0549831 -0.0558906 -0.0567985 -0.0577065 -0.0586144 -0.0595219 -0.0604215 -0.0613189 -0.0622164 -0.0631139 -0.0640085 -0.0648876 -0.0657647 -0.0666419 -0.067519 -0.0683941 -0.0692515 -0.0701068 -0.0709621 -0.0718174 -0.0726707 -0.0735054 -0.0743374 -0.0751694 -0.0760015 -0.0768312 -0.0776394 -0.0784446 -0.0792498 -0.0800549 -0.0808572 -0.0816354 -0.0824096 -0.0831839 -0.0839582 -0.0847288 -0.085473 -0.0862129 -0.0869529 -0.0876928 -0.0884289 -0.0891362 -0.0898387 -0.0905413 -0.0912438 -0.0919418 -0.0926091 -0.0932713 -0.0939334 -0.0945956 -0.0952528 -0.0958772 -0.096496 -0.0971149 -0.0977337 -0.098347 -0.098926 -0.0994992 -0.100072 -0.100646 -0.101213 -0.101745 -0.102272 -0.102798 -0.103324 -0.103844 -0.104329 -0.104806 -0.105284 -0.105762 -0.106233 -0.106667 -0.107094 -0.107521 -0.107947 -0.108367 -0.108747 -0.10912 -0.109493 -0.109866 -0.110231 -0.110556 -0.110873 -0.11119 -0.111507 -0.111816 -0.112084 -0.112344 -0.112604 -0.112865 -0.113117 -0.113327 -0.11353 -0.113733 -0.113935 -0.11413 -0.114282 -0.114426 -0.114571 -0.114715 -0.11485 -0.114943 -0.115029 -0.115114 -0.1152 -0.115277 -0.115313 -0.115342 -0.115371 -0.1154 -0.115421 -0.115403 -0.115377 -0.115352 -0.115327 -0.115294 -0.115223 -0.115146 -0.115068 -0.11499 -0.114905 -0.114783 -0.114653 -0.114523 -0.114394 -0.114257 -0.114083 -0.113902 -0.113721 -0.11354 -0.113351 -0.113127 -0.112897 -0.112666 -0.112436 -0.112198 -0.111928 -0.111651 -0.111375 -0.111098 -0.110814 -0.1105 -0.110179 -0.109858 -0.109538 -0.10921 -0.108854 -0.108492 -0.108129 -0.107767 -0.107398 -0.107001 -0.106599 -0.106197 -0.105795 -0.105388 -0.104954 -0.104516 -0.104078 -0.103639 -0.103196 -0.102729 -0.102259 -0.101788 -0.101318 -0.100843 -0.100349 -0.0998507 -0.0993526 -0.0988545 -0.0983523 -0.0978335 -0.097311 -0.0967886 -0.0962662 -0.0957399 -0.0951989 -0.0946546 -0.0941102 -0.0935658 -0.0930177 -0.0924568 -0.091893 -0.0913292 -0.0907655 -0.0901985 -0.0896208 -0.0890407 -0.0884605 -0.0878803 -0.0872972 -0.0867057 -0.0861123 -0.0855189 -0.0849255 -0.0843298 -0.083728 -0.0831245 -0.0825209 -0.0819174 -0.0813119 -0.0807022 -0.0800914 -0.0794805 -0.0788697 -0.0782574 -0.077643 -0.0770276 -0.0764122 -0.0757968 -0.0751801 -0.0745631 -0.0739457 -0.0733283 -0.0727109 -0.0720928 -0.071476 -0.070859 -0.070242 -0.069625 -0.0690075 -0.0683929 -0.0677786 -0.0671643 -0.0665499 -0.0659355 -0.0653255 -0.0647158 -0.0641061 -0.0634964 -0.0628868 -0.0622828 -0.0616796 -0.0610764 -0.0604732 -0.0598705 -0.0592746 -0.0586796 -0.0580845 -0.0574895 -0.0568952 -0.0563087 -0.0557234 -0.0551381 -0.0545529 -0.0539686 -0.0533932 -0.0528191 -0.0522449 -0.0516708 -0.0510978 -0.0505344 -0.0499726 -0.0494109 -0.0488491 -0.0482888 -0.0477387 -0.0471904 -0.046642 -0.0460936 -0.0455468 -0.0450108 -0.0444768 -0.0439427 -0.0434087 -0.0428764 -0.0423556 -0.0418366 -0.0413177 -0.0407987 -0.0402816 -0.0397763 -0.0392731 -0.0387698 -0.0382666 -0.0377654 -0.0372763 -0.0367894 -0.0363024 -0.0358154 -0.0353305 -0.0348578 -0.0343875 -0.0339171 -0.0334468 -0.0329786 -0.0325229 -0.0320694 -0.0316159 -0.0311625 -0.0307112 -0.0302724 -0.029836 -0.0293996 -0.0289631 -0.0285291 -0.0281074 -0.027688 -0.0272687 -0.0268494 -0.0264324 -0.0260278 -0.0256255 -0.0252233 -0.024821 -0.0244212 -0.0240337 -0.0236486 -0.0232635 -0.0228784 -0.0224956 -0.0221252 -0.0217574 -0.0213895 -0.0210216 -0.0206562 -0.0203029 -0.0199522 -0.0196015 -0.0192507 -0.0189023 -0.0185657 -0.0182316 -0.0178976 -0.0175636 -0.017232 -0.0169117 -0.0165938 -0.0162759 -0.015958 -0.0156426 -0.015338 -0.0150357 -0.0147333 -0.014431 -0.0141312 -0.0138419 -0.0135548 -0.0132677 -0.0129807 -0.0126962 -0.0124219 -0.0121498 -0.0118777 -0.0116056 -0.0113358 -0.0110761 -0.0108186 -0.0105612 -0.0103037 -0.0100485 -0.00980324 -0.00956008 -0.00931693 -0.00907377 -0.00883282 -0.00860134 -0.00837191 -0.00814247 -0.00791304 -0.00768569 -0.00746734 -0.00725109 -0.00703484 -0.0068186 -0.00660443 -0.0063989 -0.0061954 -0.00599191 -0.00578841 -0.00558691 -0.00539369 -0.00520257 -0.00501146 -0.00482035 -0.00463133 -0.00445029 -0.00427136 -0.00409242 -0.00391349 -0.0037366 -0.00356737 -0.00340019 -0.00323301 -0.00306583 -0.00290069 -0.00274264 -0.00258647 -0.00243029 -0.00227412 -0.00211998 -0.00197246 -0.00182648 -0.0016805 -0.00153452 -0.00139032 -0.00125236 -0.001116 -0.000979643 -0.000843284 -0.0007087 -0.000580025 -0.00045296 -0.000325895 -0.00019883 -7.34103e-05 4.62576e-05 0.00016431 0.000282362 0.000400414 0.000516849 0.000627835 0.000737236 0.000846637 0.000956038 0.00106382 0.00116655 0.00126774 0.00136893 0.00147012 0.00156972 0.00166462 0.00175805 0.00185148 0.00194492 0.00203684 0.00212437 0.00221048 0.00229658 0.00238269 0.00246732 0.00254782 0.00262699 0.00270617 0.00278534 0.00286311 0.00293705 0.00300968 0.0030823 0.00315492 0.00322616 0.00329385 0.0033603 0.00342675 0.00349321 0.00355836 0.00362021 0.00368085 0.00374148 0.00380212 0.00386147 0.00391779 0.00397297 0.00402815 0.00408333 0.0041373 0.0041885 0.00423855 0.00428861 0.00433867 0.00438752 0.00443383 0.00447906 0.0045243 0.00456953 0.00461363 0.0046554 0.0046961 0.00473681 0.00477751 0.00481711 0.00485456 0.00489102 0.00492749 0.00496396 0.00499937 0.00503287 0.00506538 0.00509789 0.00513039 0.00516186 0.00519159 0.0052204 0.00524922 0.00527803 0.00530587 0.00533214 0.00535751 0.00538287 0.00540824 0.00543264 0.00545564 0.0054778 0.00549995 0.00552211 0.00554336 0.0055634 0.00558258 0.00560177 0.00562095 0.00563923 0.00565645 0.00567289 0.00568932 0.00570575 0.00572135 0.00573602 0.00574991 0.0057638 0.00577768 0.00579074 0.00580301 0.00581454 0.00582608 0.00583762 0.00584839 0.00585849 0.00586786 0.00587724 0.00588662 0.00589522 0.00590328 0.00591067 0.00591807 0.00592546 0.00593213 0.00593837 0.00594395 0.00594952 0.00595509 0.00595995 0.00596449 0.0059684 0.00597232 0.00597623 0.00597948 0.00598252 0.00598493 0.00598734 0.00598975 0.00599149 0.00599312 0.00599416 0.0059952 0.00599625 0.00599666 0.00599705 0.00599685 0.00599666 0.00599646 0.00599563 0.00599487 0.00599356 0.00599225 0.00599094 0.00598905 0.00598731 0.00598502 0.00598273 0.00598044 0.00597756 0.00597491 0.00597174 0.00596857 0.0059654 0.00596168 0.00595825 0.0059543 0.00595036 0.00594641 0.00594192 0.00593779 0.00593318 0.00592857 0.00592396 0.00591883 0.00591414 0.00590896 0.00590378 0.00589861 0.00589292 0.00588773 0.00588208 0.00587643 0.00587078 0.00586465 0.00585908 0.00585304 0.00584701 0.00584098 0.00583446 0.00582857 0.00582223 0.0058159 0.00580957 0.00580278 0.00579666 0.00579011 0.00578356 0.00577701 0.00577 0.00576373 0.00575704 0.00575035 0.00574366 0.00573653 0.00573019 0.00572343 0.00571667 0.00570991 0.00570273 0.00569638 0.00568962 0.00568287 0.00567611 0.00566894 0.00566266 0.00565598 0.0056493 0.00564261 0.00563552 0.00562937 0.00562283 0.00561628 0.00560974 0.00560279 0.00559683 0.00559049 0.00558414 0.0055778 0.00557106 0.00556536 0.00555927 0.00555318 0.0055471 0.00554062 0.00553523 0.00552945 0.00552368 0.0055179 0.00551175 0.00550672 0.00550131 0.00549589 0.00549048 0.00548469 0.00548005 0.00547503 0.00547002 0.00546501 0.00545963 0.00545543 0.00545084 0.00544625 0.00544166 0.00543669 0.00543291 0.00542874 0.00542457 0.0054204 0.00541586 0.00541246 0.00540865 0.00540484 0.00540102 0.00539681 0.00539361 0.00538997 0.00538632 0.00538267 0.00537861 0.0053752 0.00537128 0.00536736 0.00536344 0.00535904 0.00535413 0.0053484 0.00534267 0.00533694 0.00533043 0.00532164 0.00531243 0.00530322 0.00529401 0.00528431 0.00525818 0.00522652 0.00519487 0.00516321 0.00512667 0.00511519 0.00511784 0.00512049 0.00512314 0.00514875 0.00523235 0.00530838 0.00538774 0.00545071 0.00549632 0.00548929 0.00548545 0.00548161 0.0054778 0.00547627 0.00550314 0.00553081 0.00555849 0.00557816 0.00559911 0.00561304 0.00563189 0.00565076 0.00566963 0.00568396 0.00574684 0.00581185 0.00587685 0.00594186 0.00599836 0.00608979 0.00616589 0.00624199 0.00631809 0.00632322 0.00630859 0.0062892 0.00626982 0.00625044 0.00624055 0.00603969 0.00581813 0.00559656 0.005375 0.00504762 0.00456764 0.00407375 0.00357987 0.00308599 0.0026219 0.00235214 0.00207484 0.00179754 0.00152023 0.0012729 0.0011743 0.00106928 0.000964253 0.00085923 0.000773586 0.000667673 0.000556204 0.000444733 0.000333263 0.000255277
-0.0319474 -0.0319665 -0.0319856 -0.0320047 -0.0320238 -0.0320429 -0.0327438 -0.0336214 -0.034404 -0.0351665 -0.0362248 -0.0372615 -0.0382518 -0.0392543 -0.0403137 -0.0412977 -0.0422589 -0.0432249 -0.0441655 -0.0451007 -0.0460067 -0.0469047 -0.0478108 -0.0487167 -0.0496219 -0.0505269 -0.0514186 -0.0523223 -0.053231 -0.0541407 -0.0550611 -0.0559662 -0.0568785 -0.0577902 -0.0586997 -0.0596148 -0.0605161 -0.0614145 -0.062314 -0.0632139 -0.0641101 -0.0649911 -0.0658711 -0.0667507 -0.0676283 -0.0685042 -0.0693624 -0.070218 -0.0710762 -0.071935 -0.0727915 -0.0736255 -0.0744609 -0.0752958 -0.0761281 -0.0769617 -0.077769 -0.0785744 -0.0793821 -0.0801903 -0.0809971 -0.0817728 -0.0825499 -0.0833266 -0.084101 -0.0848769 -0.0856177 -0.0863578 -0.0871 -0.0878427 -0.0885851 -0.0892875 -0.0899927 -0.0906974 -0.0914 -0.0921055 -0.0927667 -0.0934289 -0.0940931 -0.0947577 -0.0954235 -0.0960404 -0.0966615 -0.0972821 -0.0979009 -0.0985237 -0.0990927 -0.0996657 -0.10024 -0.100816 -0.101395 -0.101914 -0.102441 -0.102969 -0.103495 -0.10403 -0.104502 -0.104979 -0.105458 -0.105936 -0.106421 -0.106844 -0.10727 -0.107697 -0.108124 -0.108555 -0.108925 -0.109298 -0.10967 -0.110043 -0.110418 -0.110733 -0.111049 -0.111366 -0.111683 -0.112001 -0.11226 -0.112521 -0.11278 -0.113039 -0.113299 -0.113502 -0.113704 -0.113906 -0.114108 -0.11431 -0.114455 -0.114599 -0.114742 -0.114886 -0.115029 -0.115112 -0.115197 -0.115283 -0.115368 -0.115455 -0.115479 -0.115508 -0.115537 -0.115565 -0.115599 -0.115566 -0.11554 -0.115514 -0.115489 -0.115469 -0.115385 -0.115307 -0.115227 -0.115148 -0.115074 -0.114939 -0.114806 -0.114673 -0.114543 -0.114415 -0.114229 -0.114047 -0.113863 -0.113678 -0.113499 -0.113263 -0.113029 -0.112795 -0.112564 -0.112335 -0.112053 -0.111776 -0.111496 -0.111215 -0.110939 -0.110614 -0.11029 -0.109966 -0.109645 -0.109324 -0.108959 -0.108596 -0.108231 -0.107866 -0.107502 -0.107099 -0.106695 -0.106291 -0.105889 -0.105486 -0.105045 -0.104607 -0.104167 -0.103727 -0.103288 -0.102812 -0.102339 -0.101866 -0.101395 -0.100927 -0.100422 -0.0999229 -0.0994218 -0.0989201 -0.0984251 -0.097896 -0.0973697 -0.096844 -0.0963211 -0.0958009 -0.0952512 -0.0947065 -0.0941591 -0.0936112 -0.0930681 -0.0924996 -0.0919325 -0.091366 -0.0908019 -0.0902388 -0.0896542 -0.0890736 -0.0884908 -0.0879075 -0.087328 -0.0867302 -0.0861338 -0.0855379 -0.0849441 -0.0843514 -0.0837437 -0.0831399 -0.0825339 -0.0819275 -0.0813248 -0.0807099 -0.0800964 -0.0794833 -0.0788721 -0.078262 -0.0776429 -0.0770272 -0.0764096 -0.0757916 -0.075177 -0.0745559 -0.0739361 -0.0733166 -0.072699 -0.0720822 -0.0714619 -0.0708446 -0.0702258 -0.0696066 -0.0689904 -0.0683729 -0.0677566 -0.0671406 -0.0665261 -0.0659125 -0.0652999 -0.06469 -0.0640788 -0.0634673 -0.0628584 -0.0622524 -0.0616475 -0.0610429 -0.0604395 -0.0598371 -0.0592394 -0.0586443 -0.058048 -0.0574515 -0.0568573 -0.0562696 -0.055683 -0.0550966 -0.0545113 -0.0539268 -0.0533504 -0.0527762 -0.0522011 -0.0516258 -0.0510526 -0.0504887 -0.0499259 -0.0493633 -0.0488014 -0.0482405 -0.0476902 -0.0471418 -0.0465927 -0.0460435 -0.045496 -0.0449602 -0.0444255 -0.0438908 -0.0433567 -0.0428236 -0.042303 -0.0417841 -0.0412646 -0.0407451 -0.0402271 -0.0397224 -0.0392187 -0.0387152 -0.0382119 -0.0377096 -0.0372213 -0.0367344 -0.0362471 -0.0357598 -0.0352738 -0.0348022 -0.0343316 -0.0338611 -0.0333907 -0.0329213 -0.0324667 -0.0320133 -0.0315597 -0.0311062 -0.0306536 -0.0302162 -0.0297798 -0.0293433 -0.028907 -0.0284715 -0.0280513 -0.027632 -0.0272128 -0.0267936 -0.0263752 -0.0259722 -0.0255701 -0.0251681 -0.0247659 -0.0243646 -0.0239786 -0.0235935 -0.0232086 -0.0228236 -0.0224396 -0.0220706 -0.021703 -0.0213353 -0.0209675 -0.0206009 -0.0202489 -0.0198982 -0.0195477 -0.0191972 -0.0188479 -0.0185125 -0.0181786 -0.0178446 -0.0175107 -0.017178 -0.0168594 -0.0165416 -0.0162239 -0.0159062 -0.0155895 -0.015287 -0.014985 -0.014683 -0.0143808 -0.0140791 -0.0137926 -0.0135056 -0.0132189 -0.0129323 -0.0126454 -0.012374 -0.0121024 -0.0118307 -0.0115586 -0.0112864 -0.0110294 -0.0107719 -0.0105149 -0.0102579 -0.0100004 -0.00975763 -0.00951493 -0.00927216 -0.00902905 -0.00878614 -0.00855715 -0.00832781 -0.00809886 -0.00787 -0.00764066 -0.00742498 -0.00720946 -0.00699383 -0.0067777 -0.00656183 -0.00635875 -0.00615536 -0.00595249 -0.00574974 -0.0055467 -0.00535572 -0.00516535 -0.00497486 -0.00478384 -0.00459335 -0.0044142 -0.00423533 -0.00405685 -0.00387846 -0.00370044 -0.00353243 -0.00336549 -0.00319851 -0.00303136 -0.00286503 -0.00270841 -0.0025523 -0.0023963 -0.00224032 -0.00208499 -0.00193929 -0.00179371 -0.00164808 -0.00150221 -0.00135665 -0.00122123 -0.001085 -0.000949158 -0.000813399 -0.000676878 -0.000550913 -0.000424512 -0.000298011 -0.000171058 -4.38173e-05 7.34543e-05 0.000191421 0.000308949 0.000426378 0.000544544 0.000653362 0.000762215 0.000871156 0.000980488 0.00108984 0.00119055 0.00129168 0.00139245 0.00149314 0.00159421 0.00168722 0.00178018 0.00187321 0.00196658 0.00205989 0.00214554 0.00223158 0.0023173 0.00240295 0.00248891 0.00256766 0.00264637 0.00272515 0.00280425 0.00288329 0.00295546 0.00302802 0.00310025 0.00317241 0.00324489 0.00331096 0.00337697 0.00344304 0.00350944 0.00357575 0.00363599 0.00369657 0.00375687 0.00381711 0.00387762 0.00393242 0.00398725 0.00404213 0.00409726 0.0041524 0.00420201 0.00425201 0.00430177 0.00435148 0.0044015 0.00444629 0.00449117 0.0045361 0.00458128 0.00462652 0.00466674 0.00470739 0.0047478 0.00478816 0.00482888 0.00486487 0.00490101 0.00493719 0.00497361 0.00501014 0.00504215 0.0050746 0.00510684 0.00513903 0.0051716 0.00519993 0.00522844 0.00525699 0.00528575 0.00531468 0.00533953 0.00536485 0.00538997 0.00541504 0.00544052 0.00546219 0.00548407 0.00550599 0.00552811 0.00555043 0.00556909 0.00558823 0.00560719 0.00562611 0.00564545 0.00566138 0.00567755 0.00569377 0.00571016 0.00572679 0.00574014 0.00575399 0.00576767 0.00578132 0.00579539 0.00580642 0.00581772 0.00582907 0.00584057 0.00585234 0.00586117 0.00587051 0.0058797 0.00588885 0.00589846 0.00590532 0.0059125 0.00591971 0.00592707 0.00593473 0.00593974 0.00594528 0.00595068 0.00595605 0.0059619 0.00596528 0.005969 0.00597276 0.00597665 0.00598087 0.00598271 0.00598509 0.00598735 0.00598958 0.00599231 0.0059928 0.00599367 0.00599456 0.00599558 0.00599696 0.00599618 0.00599595 0.00599562 0.00599525 0.0059954 0.00599351 0.00599205 0.00599062 0.00598929 0.00598838 0.0059855 0.00598319 0.00598077 0.00597833 0.00597641 0.00597268 0.00596936 0.00596607 0.00596288 0.00596009 0.00595557 0.00595161 0.00594755 0.00594347 0.00593991 0.00593474 0.00593 0.00592529 0.00592066 0.00591646 0.0059107 0.00590551 0.00590023 0.00589494 0.00589017 0.00588396 0.00587821 0.00587247 0.0058668 0.00586159 0.00585498 0.00584893 0.00584281 0.00583668 0.00583108 0.00582418 0.00581775 0.00581134 0.00580499 0.00579912 0.00579198 0.00578542 0.00577879 0.00577215 0.00576606 0.0057588 0.00575202 0.00574526 0.00573856 0.00573235 0.005725 0.00571823 0.00571141 0.00570458 0.0056983 0.00569097 0.00568415 0.00567734 0.00567058 0.00566433 0.00565705 0.00565036 0.00564363 0.00563688 0.00563071 0.00562358 0.00561698 0.00561039 0.00560384 0.00559782 0.00559088 0.00558452 0.00557814 0.00557175 0.00556593 0.00555926 0.00555314 0.00554702 0.00554092 0.00553539 0.00552901 0.00552323 0.00551743 0.00551163 0.00550642 0.00550042 0.00549499 0.00548957 0.00548415 0.00547933 0.00547371 0.00546869 0.00546368 0.00545867 0.00545427 0.0054491 0.00544455 0.00543999 0.0054354 0.00543147 0.0054267 0.00542254 0.00541845 0.00541438 0.00541092 0.00540655 0.00540295 0.00539932 0.00539553 0.00539255 0.00538838 0.00538478 0.00538155 0.0053784 0.00537583 0.0053715 0.00536868 0.00536568 0.0053619 0.00535962 0.00535429 0.00534903 0.00534603 0.00534357 0.00534113 0.00533208 0.00533034 0.00532742 0.00531947 0.00531843 0.00530411 0.00527953 0.00527502 0.00527523 0.00526449 0.00522159 0.00523316 0.00524352 0.00524879 0.0053169 0.00541035 0.0054739 0.00553747 0.00557544 0.00552913 0.0055099 0.00550286 0.00549581 0.00548831 0.00549231 0.00550984 0.005528 0.00554616 0.00555786 0.00556911 0.00557017 0.00557122 0.00557227 0.0055732 0.00557389 0.00559872 0.00562767 0.0056567 0.00568573 0.00565911 0.00569726 0.00575989 0.0058229 0.00588591 0.0059659 0.00618016 0.00626917 0.00635162 0.00642772 0.0063208 0.00635665 0.00633727 0.00632081 0.00631135 0.00625597 0.00620942 0.00598786 0.00576629 0.00553215 0.00503855 0.00469893 0.00420505 0.00371117 0.00321461 0.00259582 0.00241419 0.00213689 0.00185959 0.00158228 0.00124249 0.00122339 0.00111837 0.00101334 0.000908322 0.000751154 0.000715159 0.000603691 0.000492223 0.000380755 0.000206756