# vtk DataFile Version 2.0
track0
ASCII
DATASET POLYDATA
POINTS 15780 float
-1.001 -0.05 0.0011
-1.0008 -0.05 0.0011
-1.0006 -0.05 0.0011
-1.0004 -0.05 0.0011
-1.0002 -0.05 0.0011
-1 -0.05 0.0011
-0.9875 -0.05 0.0011
-0.975 -0.05 0.0011
-0.9625 -0.05 0.0011
-0.95 -0.05 0.0011
-0.9375 -0.05 0.00109999
-0.925 -0.05 0.00109999
-0.9125 -0.05 0.00109999
-0.9 -0.05 0.00109999
-0.8875 -0.05 0.00109999
-0.875 -0.05 0.00109999
-0.8625 -0.05 0.00109999
-0.85 -0.05 0.00109999
-0.8375 -0.05 0.00109998
-0.825 -0.0500001 0.00109998
-0.8125 -0.0500001 0.00109998
-0.8 -0.0500001 0.00109998
-0.7875 -0.0500001 0.00109998
-0.775 -0.0500001 0.00109998
-0.7625 -0.0500001 0.00109998
-0.75 -0.0500001 0.00109998
-0.7375 -0.0500001 0.00109997
-0.725 -0.0500001 0.00109997
-0.7125 -0.0500001 0.00109997
-0.7 -0.0500001 0.00109997
-0.6875 -0.0500001 0.00109997
-0.675 -0.0500001 0.00109997
-0.6625 -0.0500001 0.00109997
-0.65 -0.0500001 0.00109996
-0.6375 -0.0500001 0.00109996
-0.625 -0.0500001 0.00109996
-0.6125 -0.0500001 0.00109996
-0.6 -0.0500001 0.00109996
-0.5875 -0.0500001 0.00109996
-0.575 -0.0500001 0.00109996
-0.5625 -0.0500001 0.00109996
-0.55 -0.0500001 0.00109995
-0.5375 -0.0500001 0.00109995
-0.525 -0.0500001 0.00109995
-0.5125 -0.0500001 0.00109995
-0.5 -0.0500001 0.00109995
-0.4875 -0.0500001 0.00109995
-0.475 -0.0500001 0.00109995
-0.4625 -0.0500001 0.00109994
-0.45 -0.0500002 0.00109994
-0.4375 -0.0500002 0.00109994
-0.425 -0.0500002 0.00109994
-0.4125 -0.0500002 0.00109994
-0.4 -0.0500002 0.00109994
-0.3875 -0.0500002 0.00109994
-0.375 -0.0500002 0.00109994
-0.3625 -0.0500002 0.00109993
-0.35 -0.0500002 0.00109993
-0.3375 -0.0500002 0.00109993
-0.325 -0.0500002 0.00109993
-0.3125 -0.0500002 0.00109993
-0.3 -0.0500002 0.00109993
-0.2875 -0.0500002 0.00109993
-0.275 -0.0500002 0.00109993
-0.2625 -0.0500002 0.00109992
-0.25 -0.0500002 0.00109992
-0.2375 -0.0500002 0.00109992
-0.225 -0.0500002 0.00109992
-0.2125 -0.0500002 0.00109992
-0.2 -0.0500002 0.00109992
-0.1875 -0.0500002 0.00109992
-0.175 -0.0500002 0.00109992
-0.1625 -0.0500002 0.00109991
-0.15 -0.0500002 0.00109991
-0.1375 -0.0500002 0.00109991
-0.125 -0.0500002 0.00109991
-0.1125 -0.0500002 0.00109991
-0.1 -0.0500002 0.00109991
-0.0875 -0.0500002 0.00109991
-0.075 -0.0500002 0.00109991
-0.0625 -0.0500002 0.00109991
-0.05 -0.0500003 0.00109991
-0.0375 -0.0500003 0.0010999
-0.025 -0.0500003 0.0010999
-0.0125 -0.0500003 0.0010999
2.10607e-13 -0.0500003 0.0010999
0.0125 -0.0500003 0.0010999
0.025 -0.0500003 0.0010999
0.0375 -0.0500003 0.0010999
0.05 -0.0500003 0.0010999
0.0625 -0.0500003 0.0010999
0.075 -0.0500003 0.0010999
0.0875 -0.0500003 0.0010999
0.1 -0.0500003 0.00109989
0.1125 -0.0500003 0.00109989
0.125 -0.0500003 0.00109989
0.1375 -0.0500003 0.00109989
0.15 -0.0500003 0.00109989
0.1625 -0.0500003 0.00109989
0.175 -0.0500003 0.00109989
0.1875 -0.0500003 0.00109989
0.2 -0.0500003 0.00109989
0.2125 -0.0500003 0.00109989
0.225 -0.0500003 0.00109989
0.2375 -0.0500003 0.00109989
0.25 -0.0500003 0.00109989
0.2625 -0.0500003 0.00109988
0.275 -0.0500003 0.00109988
0.2875 -0.0500003 0.00109988
0.3 -0.0500003 0.00109988
0.3125 -0.0500003 0.00109988
0.325 -0.0500003 0.00109988
0.3375 -0.0500003 0.00109988
0.35 -0.0500003 0.00109988
0.3625 -0.0500003 0.00109988
0.375 -0.0500003 0.00109988
0.3875 -0.0500003 0.00109988
0.4 -0.0500004 0.00109988
0.4125 -0.0500004 0.00109988
0.425 -0.0500004 0.00109988
0.4375 -0.0500004 0.00109988
0.45 -0.0500004 0.00109988
0.4625 -0.0500004 0.00109988
0.475 -0.0500004 0.00109988
0.4875 -0.0500004 0.00109988
0.5 -0.0500004 0.00109988
0.5125 -0.0500004 0.00109988
0.525 -0.0500004 0.00109988
0.5375 -0.0500004 0.00109988
0.55 -0.0500004 0.00109988
0.5625 -0.0500004 0.00109988
0.575 -0.0500004 0.00109987
0.5875 -0.0500004 0.00109987
0.6 -0.0500004 0.00109987
0.6125 -0.0500004 0.00109987
0.625 -0.0500004 0.00109987
0.6375 -0.0500004 0.00109987
0.65 -0.0500004 0.00109987
0.6625 -0.0500004 0.00109987
0.675 -0.0500004 0.00109987
0.6875 -0.0500004 0.00109987
0.7 -0.0500004 0.00109987
0.7125 -0.0500004 0.00109987
0.725 -0.0500004 0.00109987
0.7375 -0.0500004 0.00109987
0.75 -0.0500004 0.00109987
0.7625 -0.0500004 0.00109987
0.775 -0.0500004 0.00109987
0.7875 -0.0500004 0.00109987
0.8 -0.0500004 0.00109987
0.8125 -0.0500004 0.00109987
0.825 -0.0500004 0.00109987
0.8375 -0.0500004 0.00109987
0.85 -0.0500004 0.00109987
0.8625 -0.0500004 0.00109987
0.875 -0.0500004 0.00109987
0.8875 -0.0500004 0.00109987
0.9 -0.0500004 0.00109987
0.9125 -0.0500005 0.00109988
0.925 -0.0500005 0.00109988
0.9375 -0.0500005 0.00109988
0.95 -0.0500005 0.00109988
0.9625 -0.0500005 0.00109988
0.975 -0.0500005 0.00109988
0.9875 -0.0500005 0.00109988
1 -0.0500005 0.00109988
1.0125 -0.0500005 0.00109988
1.025 -0.0500005 0.00109988
1.0375 -0.0500005 0.00109988
1.05 -0.0500005 0.00109988
1.0625 -0.0500005 0.00109988
1.075 -0.0500005 0.00109988
1.0875 -0.0500005 0.00109988
1.1 -0.0500005 0.00109988
1.1125 -0.0500005 0.00109988
1.125 -0.0500005 0.00109988
1.1375 -0.0500005 0.00109988
1.15 -0.0500005 0.00109988
1.1625 -0.0500005 0.00109988
1.175 -0.0500005 0.00109988
1.1875 -0.0500005 0.00109988
1.2 -0.0500005 0.00109988
1.2125 -0.0500005 0.00109988
1.225 -0.0500005 0.00109988
1.2375 -0.0500005 0.00109989
1.25 -0.0500005 0.00109989
1.2625 -0.0500005 0.00109989
1.275 -0.0500005 0.00109989
1.2875 -0.0500005 0.00109989
1.3 -0.0500005 0.00109989
1.3125 -0.0500005 0.00109989
1.325 -0.0500005 0.00109989
1.3375 -0.0500005 0.00109989
1.35 -0.0500005 0.00109989
1.3625 -0.0500005 0.00109989
1.375 -0.0500005 0.00109989
1.3875 -0.0500005 0.00109989
1.4 -0.0500005 0.00109989
1.4125 -0.0500005 0.00109989
1.425 -0.0500005 0.00109989
1.4375 -0.0500005 0.0010999
1.45 -0.0500005 0.0010999
1.4625 -0.0500005 0.0010999
1.475 -0.0500005 0.0010999
1.4875 -0.0500005 0.0010999
1.5 -0.0500006 0.0010999
1.5125 -0.0500006 0.0010999
1.525 -0.0500006 0.0010999
1.5375 -0.0500006 0.0010999
1.55 -0.0500006 0.0010999
1.5625 -0.0500006 0.0010999
1.575 -0.0500006 0.0010999
1.5875 -0.0500006 0.0010999
1.6 -0.0500006 0.0010999
1.6125 -0.0500006 0.00109991
1.625 -0.0500006 0.00109991
1.6375 -0.0500006 0.00109991
1.65 -0.0500006 0.00109991
1.6625 -0.0500006 0.00109991
1.675 -0.0500006 0.00109991
1.6875 -0.0500006 0.00109991
1.7 -0.0500006 0.00109991
1.7125 -0.0500006 0.00109991
1.725 -0.0500006 0.00109991
1.7375 -0.0500006 0.00109991
1.75 -0.0500006 0.00109991
1.7625 -0.0500006 0.00109992
1.775 -0.0500006 0.00109992
1.7875 -0.0500006 0.00109992
1.8 -0.0500006 0.00109992
1.8125 -0.0500006 0.00109992
1.825 -0.0500006 0.00109992
1.8375 -0.0500006 0.00109992
1.85 -0.0500006 0.00109992
1.8625 -0.0500006 0.00109992
1.875 -0.0500006 0.00109992
1.8875 -0.0500006 0.00109992
1.9 -0.0500006 0.00109992
1.9125 -0.0500006 0.00109993
1.925 -0.0500006 0.00109993
1.9375 -0.0500006 0.00109993
1.95 -0.0500006 0.00109993
1.9625 -0.0500006 0.00109993
1.975 -0.0500006 0.00109993
1.9875 -0.0500006 0.00109993
2 -0.0500006 0.00109993
2.0125 -0.0500006 0.00109993
2.025 -0.0500006 0.00109993
2.0375 -0.0500006 0.00109993
2.05 -0.0500006 0.00109993
2.0625 -0.0500006 0.00109994
2.075 -0.0500006 0.00109994
2.0875 -0.0500006 0.00109994
2.1 -0.0500006 0.00109994
2.1125 -0.0500006 0.00109994
2.125 -0.0500006 0.00109994
2.1375 -0.0500006 0.00109994
2.15 -0.0500006 0.00109994
2.1625 -0.0500006 0.00109994
2.175 -0.0500007 0.00109994
2.1875 -0.0500007 0.00109994
2.2 -0.0500007 0.00109994
2.2125 -0.0500007 0.00109994
2.225 -0.0500007 0.00109995
2.2375 -0.0500007 0.00109995
2.25 -0.0500007 0.00109995
2.2625 -0.0500007 0.00109995
2.275 -0.0500007 0.00109995
2.2875 -0.0500007 0.00109995
2.3 -0.0500007 0.00109995
2.3125 -0.0500007 0.00109995
2.325 -0.0500007 0.00109995
2.3375 -0.0500007 0.00109995
2.35 -0.0500007 0.00109995
2.3625 -0.0500007 0.00109995
2.375 -0.0500007 0.00109995
2.3875 -0.0500007 0.00109996
2.4 -0.0500007 0.00109996
2.4125 -0.0500007 0.00109996
2.425 -0.0500007 0.00109996
2.4375 -0.0500007 0.00109996
2.45 -0.0500007 0.00109996
2.4625 -0.0500007 0.00109996
2.475 -0.0500007 0.00109996
2.4875 -0.0500007 0.00109996
2.5 -0.0500007 0.00109996
2.5125 -0.0500007 0.00109996
2.525 -0.0500007 0.00109996
2.5375 -0.0500007 0.00109996
2.55 -0.0500007 0.00109996
2.5625 -0.0500007 0.00109997
2.575 -0.0500007 0.00109997
2.5875 -0.0500007 0.00109997
2.6 -0.0500007 0.00109997
2.6125 -0.0500007 0.00109997
2.625 -0.0500007 0.00109997
2.6375 -0.0500007 0.00109997
2.65 -0.0500007 0.00109997
2.6625 -0.0500007 0.00109997
2.675 -0.0500007 0.00109997
2.6875 -0.0500007 0.00109997
2.7 -0.0500007 0.00109997
2.7125 -0.0500007 0.00109997
2.725 -0.0500007 0.00109997
2.7375 -0.0500007 0.00109997
2.75 -0.0500007 0.00109997
2.7625 -0.0500007 0.00109998
2.775 -0.0500007 0.00109998
2.7875 -0.0500007 0.00109998
2.8 -0.0500007 0.00109998
2.8125 -0.0500007 0.00109998
2.825 -0.0500007 0.00109998
2.8375 -0.0500007 0.00109998
2.85 -0.0500007 0.00109998
2.8625 -0.0500008 0.00109998
2.875 -0.0500008 0.00109998
2.8875 -0.0500008 0.00109998
2.9 -0.0500008 0.00109998
2.9125 -0.0500008 0.00109998
2.925 -0.0500008 0.00109998
2.9375 -0.0500008 0.00109998
2.95 -0.0500008 0.00109998
2.9625 -0.0500008 0.00109998
2.975 -0.0500008 0.00109998
2.9875 -0.0500008 0.00109998
3 -0.0500008 0.00109998
3.0125 -0.0500008 0.00109999
3.025 -0.0500008 0.00109999
3.0375 -0.0500008 0.00109999
3.05 -0.0500008 0.00109999
3.0625 -0.0500008 0.00109999
3.075 -0.0500008 0.00109999
3.0875 -0.0500008 0.00109999
3.1 -0.0500008 0.00109999
3.1125 -0.0500008 0.00109999
3.125 -0.0500008 0.00109999
3.1375 -0.0500008 0.00109999
3.15 -0.0500008 0.00109999
3.1625 -0.0500008 0.00109999
3.175 -0.0500008 0.00109999
3.1875 -0.0500008 0.00109999
3.2 -0.0500008 0.00109999
3.2125 -0.0500008 0.00109999
3.225 -0.0500008 0.00109999
3.2375 -0.0500008 0.00109999
3.25 -0.0500008 0.00109999
3.2625 -0.0500008 0.00109999
3.275 -0.0500008 0.00109999
3.2875 -0.0500008 0.00109999
3.3 -0.0500008 0.00109999
3.3125 -0.0500008 0.00109999
3.325 -0.0500008 0.00109999
3.3375 -0.0500008 0.00109999
3.35 -0.0500008 0.0011
3.3625 -0.0500008 0.0011
[...]
POINT_DATA 15780
 FIELD attributes 1
U 3 15780 float
30.0002 	-7.01784e-06 	-6.30587e-06 30.0002 	-6.84335e-06 	-6.51454e-06 30.0002 	-6.66887e-06 	-6.72321e-06 30.0002 	-6.49439e-06 	-6.93188e-06 30.0002 	-6.3199e-06 	-7.14054e-06 30.0002 	-6.14542e-06 	-7.34921e-06 30.0004 	-1.23851e-05 	-1.26099e-06 30.0004 	-1.23851e-05 	-1.26099e-06 30.0004 	-1.23851e-05 	-1.26099e-06 30.0004 	-1.23851e-05 	-1.26099e-06 30.0002 	-7.0503e-08 	-6.84366e-06 30.0005 	-1.0709e-05 	-1.68704e-06 30.0005 	-1.0709e-05 	-1.68704e-06 30.0005 	-1.0709e-05 	-1.68704e-06 30.0005 	-1.0709e-05 	-1.68704e-06 30.0002 	-7.21913e-08 	-6.59608e-06 30.0005 	-9.95845e-06 	-2.08022e-06 30.0005 	-9.95844e-06 	-2.08022e-06 30.0005 	-9.95844e-06 	-2.08021e-06 30.0005 	-9.95843e-06 	-2.08021e-06 30.0003 	-4.59307e-06 	-6.24726e-06 30.0005 	-9.69169e-06 	-2.34894e-06 30.0005 	-9.69169e-06 	-2.34894e-06 30.0005 	-9.69168e-06 	-2.34894e-06 30.0005 	-9.69167e-06 	-2.34894e-06 30.0003 	-7.58035e-08 	-6.57615e-06 30.0005 	-9.52353e-06 	-2.49781e-06 30.0005 	-9.52352e-06 	-2.49781e-06 30.0005 	-9.52351e-06 	-2.49781e-06 30.0005 	-9.5235e-06 	-2.49781e-06 30.0003 	-7.75707e-08 	-6.52626e-06 30.0005 	-9.38717e-06 	-2.55606e-06 30.0005 	-9.38717e-06 	-2.55605e-06 30.0005 	-9.38716e-06 	-2.55605e-06 30.0005 	-9.38715e-06 	-2.55605e-06 30.0003 	-4.26691e-06 	-6.08528e-06 30.0005 	-9.27975e-06 	-2.55829e-06 30.0005 	-9.27975e-06 	-2.55829e-06 30.0005 	-9.27974e-06 	-2.55828e-06 30.0005 	-9.27973e-06 	-2.55828e-06 30.0003 	-4.19932e-06 	-5.97789e-06 30.0006 	-9.18758e-06 	-2.53042e-06 30.0006 	-9.18757e-06 	-2.53042e-06 30.0006 	-9.18756e-06 	-2.53042e-06 30.0006 	-9.18756e-06 	-2.53042e-06 30.0003 	-8.2893e-08 	-6.20127e-06 30.0006 	-9.09752e-06 	-2.48118e-06 30.0006 	-9.09751e-06 	-2.48118e-06 30.0006 	-9.0975e-06 	-2.48117e-06 30.0006 	-9.0975e-06 	-2.48117e-06 30.0003 	-8.46478e-08 	-6.05424e-06 30.0006 	-9.00507e-06 	-2.41361e-06 30.0006 	-9.00506e-06 	-2.41361e-06 30.0006 	-9.00505e-06 	-2.4136e-06 30.0006 	-9.00505e-06 	-2.4136e-06 30.0003 	-8.64023e-08 	-5.88783e-06 30.0006 	-8.90893e-06 	-2.32972e-06 30.0006 	-8.90892e-06 	-2.32972e-06 30.0006 	-8.90891e-06 	-2.32972e-06 30.0006 	-8.90891e-06 	-2.32972e-06 30.0003 	-3.93792e-06 	-5.36348e-06 30.0006 	-8.80889e-06 	-2.23275e-06 30.0006 	-8.80888e-06 	-2.23274e-06 30.0006 	-8.80887e-06 	-2.23274e-06 30.0006 	-8.80886e-06 	-2.23274e-06 30.0003 	-3.86414e-06 	-5.16476e-06 30.0006 	-8.70462e-06 	-2.12414e-06 30.0006 	-8.70461e-06 	-2.12414e-06 30.0006 	-8.7046e-06 	-2.12414e-06 30.0006 	-8.7046e-06 	-2.12414e-06 30.0003 	-9.16658e-08 	-5.28458e-06 30.0006 	-8.59642e-06 	-2.00508e-06 30.0006 	-8.59641e-06 	-2.00508e-06 30.0006 	-8.59641e-06 	-2.00508e-06 30.0006 	-8.5964e-06 	-2.00508e-06 30.0003 	-3.70452e-06 	-4.71941e-06 30.0007 	-8.48504e-06 	-1.87668e-06 30.0007 	-8.48503e-06 	-1.87668e-06 30.0007 	-8.48503e-06 	-1.87668e-06 30.0007 	-8.48502e-06 	-1.87668e-06 30.0003 	-3.61942e-06 	-4.47432e-06 30.0007 	-8.37169e-06 	-1.73884e-06 30.0007 	-8.37168e-06 	-1.73884e-06 30.0007 	-8.37168e-06 	-1.73884e-06 30.0007 	-8.37167e-06 	-1.73884e-06 30.0004 	-9.68677e-08 	-4.5432e-06 30.0007 	-8.26007e-06 	-1.59803e-06 30.0007 	-8.26006e-06 	-1.59803e-06 30.0007 	-8.26006e-06 	-1.59803e-06 30.0007 	-8.26005e-06 	-1.59803e-06 30.0004 	-9.85867e-08 	-4.27125e-06 30.0007 	-8.14805e-06 	-1.46323e-06 30.0007 	-8.14805e-06 	-1.46323e-06 30.0007 	-8.14805e-06 	-1.46323e-06 30.0007 	-8.14804e-06 	-1.46323e-06 30.0004 	-1.00309e-07 	-3.98927e-06 30.0007 	-8.01998e-06 	-1.32072e-06 30.0007 	-8.01997e-06 	-1.32072e-06 30.0007 	-8.01997e-06 	-1.32072e-06 30.0007 	-8.01996e-06 	-1.32071e-06 30.0004 	-3.251e-06 	-3.37796e-06 30.0007 	-7.88117e-06 	-1.168e-06 30.0007 	-7.88116e-06 	-1.168e-06 30.0007 	-7.88116e-06 	-1.168e-06 30.0007 	-7.88116e-06 	-1.168e-06 30.0004 	-1.03719e-07 	-3.40289e-06 30.0007 	-7.74522e-06 	-1.00787e-06 30.0007 	-7.74522e-06 	-1.00787e-06 30.0007 	-7.74521e-06 	-1.00787e-06 30.0007 	-7.74521e-06 	-1.00787e-06 30.0004 	-1.05415e-07 	-3.10328e-06 30.0007 	-7.61107e-06 	-8.41856e-07 30.0007 	-7.61107e-06 	-8.41855e-07 30.0007 	-7.61107e-06 	-8.41855e-07 30.0007 	-7.61107e-06 	-8.41855e-07 30.0004 	-2.93179e-06 	-2.4879e-06 30.0007 	-7.47528e-06 	-6.70201e-07 30.0007 	-7.47528e-06 	-6.70201e-07 30.0007 	-7.47528e-06 	-6.70201e-07 30.0007 	-7.47528e-06 	-6.70201e-07 30.0004 	-2.82531e-06 	-2.18315e-06 30.0007 	-7.34312e-06 	-4.97047e-07 30.0007 	-7.34312e-06 	-4.97047e-07 30.0007 	-7.34311e-06 	-4.97047e-07 30.0007 	-7.34311e-06 	-4.97047e-07 30.0004 	-1.10463e-07 	-2.17112e-06 30.0007 	-7.2153e-06 	-3.17319e-07 30.0007 	-7.2153e-06 	-3.17319e-07 30.0007 	-7.2153e-06 	-3.17319e-07 30.0007 	-7.2153e-06 	-3.17319e-07 30.0004 	-1.12128e-07 	-1.85338e-06 30.0007 	-7.09855e-06 	-1.38216e-07 30.0007 	-7.09855e-06 	-1.38216e-07 30.0007 	-7.09855e-06 	-1.38216e-07 30.0007 	-7.09855e-06 	-1.38215e-07 30.0004 	-1.13778e-07 	-1.54904e-06 30.0007 	-6.98521e-06 	4.08529e-08 30.0007 	-6.98521e-06 	4.08529e-08 30.0007 	-6.98521e-06 	4.08529e-08 30.0007 	-6.98521e-06 	4.08529e-08 30.0004 	-2.43881e-06 	-9.5853e-07 30.0007 	-6.87159e-06 	2.14666e-07 30.0007 	-6.8716e-06 	2.14666e-07 30.0007 	-6.8716e-06 	2.14666e-07 30.0007 	-6.8716e-06 	2.14666e-07 30.0004 	-2.34719e-06 	-6.82329e-07 30.0007 	-6.75339e-06 	3.90715e-07 30.0007 	-6.75339e-06 	3.90715e-07 30.0007 	-6.75339e-06 	3.90715e-07 30.0007 	-6.75339e-06 	3.90715e-07 30.0004 	-1.18699e-07 	-7.09791e-07 30.0007 	-6.64285e-06 	5.64368e-07 30.0007 	-6.64285e-06 	5.64368e-07 30.0007 	-6.64285e-06 	5.64368e-07 30.0007 	-6.64285e-06 	5.64368e-07 30.0004 	-2.16681e-06 	-1.45472e-07 30.0007 	-6.53586e-06 	7.27397e-07 30.0007 	-6.53586e-06 	7.27397e-07 30.0007 	-6.53586e-06 	7.27397e-07 30.0007 	-6.53586e-06 	7.27397e-07 30.0004 	-2.08114e-06 	1.13804e-07 30.0007 	-6.43054e-06 	8.78834e-07 30.0007 	-6.43054e-06 	8.78835e-07 30.0007 	-6.43054e-06 	8.78835e-07 30.0007 	-6.43054e-06 	8.78835e-07 30.0004 	-1.23582e-07 	7.05513e-08 30.0007 	-6.32292e-06 	1.01778e-06 30.0007 	-6.32292e-06 	1.01779e-06 30.0007 	-6.32292e-06 	1.01779e-06 30.0007 	-6.32293e-06 	1.01779e-06 30.0004 	-1.25162e-07 	3.15779e-07 30.0007 	-6.21655e-06 	1.14061e-06 30.0007 	-6.21655e-06 	1.14061e-06 30.0007 	-6.21655e-06 	1.14061e-06 30.0007 	-6.21656e-06 	1.14062e-06 30.0004 	-1.26748e-07 	5.45496e-07 30.0007 	-6.11529e-06 	1.25632e-06 30.0007 	-6.11529e-06 	1.25632e-06 30.0007 	-6.11529e-06 	1.25632e-06 30.0007 	-6.1153e-06 	1.25632e-06 30.0004 	-1.76432e-06 	1.03204e-06 30.0007 	-6.02256e-06 	1.37126e-06 30.0007 	-6.02256e-06 	1.37126e-06 30.0007 	-6.02256e-06 	1.37127e-06 30.0007 	-6.02257e-06 	1.37127e-06 30.0004 	-1.29854e-07 	9.36912e-07 30.0007 	-5.94289e-06 	1.48849e-06 30.0007 	-5.9429e-06 	1.48849e-06 30.0007 	-5.9429e-06 	1.48849e-06 30.0007 	-5.9429e-06 	1.48849e-06 30.0004 	-1.31355e-07 	1.10453e-06 30.0007 	-5.87169e-06 	1.59288e-06 30.0007 	-5.87169e-06 	1.59288e-06 30.0007 	-5.87169e-06 	1.59288e-06 30.0007 	-5.8717e-06 	1.59288e-06 30.0004 	-1.59145e-06 	1.53873e-06 30.0007 	-5.80208e-06 	1.67931e-06 30.0007 	-5.80208e-06 	1.67931e-06 30.0007 	-5.80209e-06 	1.67931e-06 30.0007 	-5.80209e-06 	1.67931e-06 30.0003 	-1.54424e-06 	1.67818e-06 30.0007 	-5.73399e-06 	1.7501e-06 30.0007 	-5.734e-06 	1.7501e-06 30.0007 	-5.734e-06 	1.7501e-06 30.0007 	-5.734e-06 	1.7501e-06 30.0003 	-1.36071e-07 	1.52469e-06 30.0006 	-5.66886e-06 	1.8098e-06 30.0006 	-5.66886e-06 	1.8098e-06 30.0006 	-5.66887e-06 	1.8098e-06 30.0006 	-5.66887e-06 	1.8098e-06 30.0003 	-1.37632e-07 	1.63224e-06 30.0006 	-5.6088e-06 	1.85993e-06 30.0006 	-5.6088e-06 	1.85993e-06 30.0006 	-5.6088e-06 	1.85993e-06 30.0006 	-5.60881e-06 	1.85993e-06 30.0003 	-1.39107e-07 	1.72396e-06 30.0006 	-5.55451e-06 	1.90042e-06 30.0006 	-5.55451e-06 	1.90043e-06 30.0006 	-5.55452e-06 	1.90043e-06 30.0006 	-5.55452e-06 	1.90043e-06 30.0003 	-1.38894e-06 	2.071e-06 30.0006 	-5.50568e-06 	1.93108e-06 30.0006 	-5.50569e-06 	1.93109e-06 30.0006 	-5.50569e-06 	1.93109e-06 30.0006 	-5.50569e-06 	1.93109e-06 30.0003 	-1.36192e-06 	2.13093e-06 30.0006 	-5.46194e-06 	1.95182e-06 30.0006 	-5.46194e-06 	1.95182e-06 30.0006 	-5.46194e-06 	1.95182e-06 30.0006 	-5.46195e-06 	1.95183e-06 30.0003 	-1.4316e-07 	1.90823e-06 30.0006 	-5.42316e-06 	1.96277e-06 30.0006 	-5.42316e-06 	1.96277e-06 30.0006 	-5.42316e-06 	1.96277e-06 30.0006 	-5.42317e-06 	1.96277e-06 30.0003 	-1.32354e-06 	2.20763e-06 30.0006 	-5.3892e-06 	1.9643e-06 30.0006 	-5.38921e-06 	1.96431e-06 30.0006 	-5.38921e-06 	1.96431e-06 30.0006 	-5.38922e-06 	1.96431e-06 30.0003 	-1.31177e-06 	2.22551e-06 30.0006 	-5.36003e-06 	1.9569e-06 30.0006 	-5.36004e-06 	1.95691e-06 30.0006 	-5.36004e-06 	1.95691e-06 30.0006 	-5.36004e-06 	1.95691e-06 30.0003 	-1.47055e-07 	1.96614e-06 30.0005 	-5.33554e-06 	1.94111e-06 30.0005 	-5.33554e-06 	1.94111e-06 30.0005 	-5.33555e-06 	1.94111e-06 30.0005 	-5.33555e-06 	1.94111e-06 30.0003 	-1.48312e-07 	1.96054e-06 30.0005 	-5.31556e-06 	1.91792e-06 30.0005 	-5.31556e-06 	1.91792e-06 30.0005 	-5.31557e-06 	1.91792e-06 30.0005 	-5.31557e-06 	1.91792e-06 30.0003 	-1.49533e-07 	1.94421e-06 30.0005 	-5.29998e-06 	1.88799e-06 30.0005 	-5.29998e-06 	1.88799e-06 30.0005 	-5.29999e-06 	1.888e-06 30.0005 	-5.29999e-06 	1.888e-06 30.0003 	-1.30923e-06 	2.17898e-06 30.0005 	-5.28865e-06 	1.85189e-06 30.0005 	-5.28865e-06 	1.8519e-06 30.0005 	-5.28866e-06 	1.8519e-06 30.0005 	-5.28866e-06 	1.8519e-06 30.0003 	-1.51896e-07 	1.88227e-06 30.0005 	-5.28138e-06 	1.81007e-06 30.0005 	-5.28138e-06 	1.81007e-06 30.0005 	-5.28139e-06 	1.81007e-06 30.0005 	-5.28139e-06 	1.81008e-06 30.0003 	-1.53021e-07 	1.83815e-06 30.0005 	-5.27795e-06 	1.76315e-06 30.0005 	-5.27795e-06 	1.76315e-06 30.0005 	-5.27796e-06 	1.76316e-06 30.0005 	-5.27796e-06 	1.76316e-06 30.0003 	-1.34847e-06 	2.04406e-06 30.0005 	-5.27814e-06 	1.71162e-06 30.0005 	-5.27814e-06 	1.71162e-06 30.0005 	-5.27814e-06 	1.71162e-06 30.0005 	-5.27815e-06 	1.71162e-06 30.0003 	-1.36855e-06 	1.98422e-06 30.0005 	-5.28171e-06 	1.65599e-06 30.0005 	-5.28171e-06 	1.65599e-06 30.0005 	-5.28171e-06 	1.65599e-06 30.0005 	-5.28172e-06 	1.65599e-06 30.0002 	-1.56256e-07 	1.66278e-06 30.0005 	-5.28852e-06 	1.59668e-06 30.0005 	-5.28852e-06 	1.59668e-06 30.0005 	-5.28853e-06 	1.59668e-06 30.0005 	-5.28853e-06 	1.59668e-06 30.0002 	-1.57318e-07 	1.59254e-06 30.0004 	-5.29849e-06 	1.53416e-06 30.0004 	-5.2985e-06 	1.53416e-06 30.0004 	-5.2985e-06 	1.53416e-06 30.0004 	-5.2985e-06 	1.53416e-06 30.0002 	-1.58402e-07 	1.51767e-06 30.0004 	-5.31145e-06 	1.4689e-06 30.0004 	-5.31146e-06 	1.4689e-06 30.0004 	-5.31146e-06 	1.4689e-06 30.0004 	-5.31146e-06 	1.4689e-06 30.0002 	-1.48023e-06 	1.69061e-06 30.0004 	-5.32701e-06 	1.40145e-06 30.0004 	-5.32702e-06 	1.40145e-06 30.0004 	-5.32702e-06 	1.40145e-06 30.0004 	-5.32702e-06 	1.40145e-06 30.0002 	-1.51476e-06 	1.60712e-06 30.0004 	-5.34491e-06 	1.3322e-06 30.0004 	-5.34491e-06 	1.3322e-06 30.0004 	-5.34491e-06 	1.3322e-06 30.0004 	-5.34491e-06 	1.3322e-06 30.0002 	-1.61672e-07 	1.27185e-06 30.0004 	-5.36494e-06 	1.26149e-06 30.0004 	-5.36494e-06 	1.26149e-06 30.0004 	-5.36494e-06 	1.26149e-06 30.0004 	-5.36495e-06 	1.26149e-06 30.0002 	-1.5901e-06 	1.43249e-06 30.0004 	-5.38677e-06 	1.18982e-06 30.0004 	-5.38677e-06 	1.18982e-06 30.0004 	-5.38677e-06 	1.18982e-06 30.0004 	-5.38678e-06 	1.18982e-06 30.0002 	-1.63058e-06 	1.34241e-06 30.0004 	-5.4104e-06 	1.11749e-06 30.0004 	-5.4104e-06 	1.11749e-06 30.0004 	-5.4104e-06 	1.11749e-06 30.0004 	-5.41041e-06 	1.11749e-06 30.0002 	-1.64696e-07 	1.00608e-06 30.0004 	-5.4355e-06 	1.04482e-06 30.0004 	-5.4355e-06 	1.04482e-06 30.0004 	-5.43551e-06 	1.04482e-06 30.0004 	-5.43551e-06 	1.04482e-06 30.0002 	-1.65636e-07 	9.15609e-07 30.0004 	-5.46118e-06 	9.72281e-07 30.0004 	-5.46118e-06 	9.72282e-07 30.0004 	-5.46118e-06 	9.72282e-07 30.0004 	-5.46118e-06 	9.72282e-07 30.0002 	-1.66545e-07 	8.24988e-07 30.0004 	-5.48725e-06 	8.99507e-07 30.0004 	-5.48725e-06 	8.99507e-07 30.0004 	-5.48725e-06 	8.99507e-07 30.0004 	-5.48725e-06 	8.99507e-07 30.0002 	-1.80749e-06 	9.75422e-07 30.0004 	-5.51405e-06 	8.25972e-07 30.0004 	-5.51405e-06 	8.25972e-07 30.0004 	-5.51406e-06 	8.25972e-07 30.0004 	-5.51406e-06 	8.25972e-07 30.0002 	-1.68262e-07 	6.43622e-07 30.0003 	-5.5438e-06 	7.52012e-07 30.0003 	-5.5438e-06 	7.52012e-07 30.0003 	-5.5438e-06 	7.52012e-07 30.0003 	-5.54381e-06 	7.52012e-07 30.0002 	-1.69084e-07 	5.52629e-07 30.0003 	-5.5783e-06 	6.77468e-07 30.0003 	-5.5783e-06 	6.77468e-07 30.0003 	-5.5783e-06 	6.77468e-07 30.0003 	-5.5783e-06 	6.77468e-07 30.0002 	-1.95587e-06 	7.01318e-07 30.0003 	-5.61517e-06 	6.04406e-07 30.0003 	-5.61517e-06 	6.04406e-07 30.0003 	-5.61517e-06 	6.04406e-07 30.0003 	-5.61517e-06 	6.04406e-07 30.0002 	-2.00806e-06 	6.11687e-07 30.0003 	-5.65124e-06 	5.34686e-07 30.0003 	-5.65124e-06 	5.34686e-07 30.0003 	-5.65124e-06 	5.34687e-07 30.0003 	-5.65124e-06 	5.34687e-07 30.0002 	-1.71577e-07 	2.80937e-07 30.0003 	-5.68235e-06 	4.67663e-07 30.0003 	-5.68236e-06 	4.67663e-07 30.0003 	-5.68236e-06 	4.67663e-07 30.0003 	-5.68236e-06 	4.67663e-07 30.0002 	-1.72408e-07 	1.97323e-07 30.0003 	-5.7108e-06 	4.03217e-07 30.0003 	-5.7108e-06 	4.03217e-07 30.0003 	-5.7108e-06 	4.03218e-07 30.0003 	-5.7108e-06 	4.03218e-07 30.0002 	-1.73212e-07 	1.16393e-07 30.0003 	-5.73898e-06 	3.39258e-07 30.0003 	-5.73898e-06 	3.39258e-07 30.0003 	-5.73898e-06 	3.39258e-07 30.0003 	-5.73898e-06 	3.39258e-07 30.0002 	-2.20133e-06 	2.74089e-07 30.0003 	-5.76696e-06 	2.75291e-07 30.0003 	-5.76696e-06 	2.75291e-07 30.0003 	-5.76696e-06 	2.75291e-07 30.0003 	-5.76696e-06 	2.75291e-07 30.0002 	-2.24826e-06 	1.96346e-07 30.0003 	-5.79367e-06 	2.10803e-07 30.0003 	-5.79367e-06 	2.10803e-07 30.0003 	-5.79367e-06 	2.10803e-07 30.0003 	-5.79367e-06 	2.10803e-07 30.0002 	-1.75371e-07 	-1.09154e-07 30.0003 	-5.82167e-06 	1.48793e-07 30.0003 	-5.82167e-06 	1.48793e-07 30.0003 	-5.82167e-06 	1.48793e-07 30.0003 	-5.82167e-06 	1.48793e-07 30.0002 	-2.34202e-06 	4.46627e-08 30.0003 	-5.85093e-06 	9e-08 30.0003 	-5.85093e-06 	9.00001e-08 30.0003 	-5.85093e-06 	9.00001e-08 30.0003 	-5.85093e-06 	9.00001e-08 30.0002 	-2.38933e-06 	-2.9113e-08 30.0003 	-5.88136e-06 	3.48293e-08 30.0003 	-5.88136e-06 	3.48293e-08 30.0003 	-5.88136e-06 	3.48293e-08 30.0003 	-5.88136e-06 	3.48293e-08 30.0002 	-1.77363e-07 	-3.30783e-07 30.0003 	-5.91305e-06 	-1.70589e-08 30.0003 	-5.91305e-06 	-1.70589e-08 30.0003 	-5.91305e-06 	-1.70589e-08 30.0003 	-5.91305e-06 	-1.70589e-08 30.0002 	-1.7798e-07 	-4.01818e-07 30.0003 	-5.94619e-06 	-6.90392e-08 30.0003 	-5.94619e-06 	-6.90392e-08 30.0003 	-5.94619e-06 	-6.90392e-08 30.0003 	-5.94619e-06 	-6.90392e-08 30.0002 	-1.78588e-07 	-4.67089e-07 30.0003 	-5.97816e-06 	-1.23299e-07 30.0003 	-5.97816e-06 	-1.23299e-07 30.0003 	-5.97816e-06 	-1.23299e-07 30.0003 	-5.97816e-06 	-1.23299e-07 30.0002 	-2.58085e-06 	-3.01388e-07 30.0003 	-6.00594e-06 	-1.77944e-07 30.0003 	-6.00594e-06 	-1.77944e-07 30.0003 	-6.00594e-06 	-1.77944e-07 30.0003 	-6.00594e-06 	-1.77944e-07 30.0002 	-1.79778e-07 	-5.84902e-07 30.0003 	-6.03007e-06 	-2.29204e-07 30.0003 	-6.03007e-06 	-2.29203e-07 30.0003 	-6.03007e-06 	-2.29203e-07 30.0003 	-6.03007e-06 	-2.29203e-07 30.0002 	-1.8037e-07 	-6.42165e-07 30.0003 	-6.05332e-06 	-2.76167e-07 30.0003 	-6.05332e-06 	-2.76167e-07 30.0003 	-6.05332e-06 	-2.76167e-07 30.0003 	-6.05332e-06 	-2.76167e-07 30.0002 	-2.70893e-06 	-4.7899e-07 30.0003 	-6.07719e-06 	-3.19644e-07 30.0003 	-6.07719e-06 	-3.19644e-07 30.0003 	-6.07719e-06 	-3.19644e-07 30.0003 	-6.07719e-06 	-3.19644e-07 30.0002 	-2.74996e-06 	-5.34035e-07 30.0003 	-6.10141e-06 	-3.6118e-07 30.0003 	-6.10141e-06 	-3.6118e-07 30.0003 	-6.10141e-06 	-3.6118e-07 30.0003 	-6.10141e-06 	-3.6118e-07 30.0002 	-1.8212e-07 	-8.03805e-07 30.0003 	-6.12546e-06 	-4.01377e-07 30.0003 	-6.12546e-06 	-4.01376e-07 30.0003 	-6.12546e-06 	-4.01376e-07 30.0003 	-6.12545e-06 	-4.01376e-07 30.0001 	-1.82674e-07 	-8.53125e-07 30.0003 	-6.14888e-06 	-4.40371e-07 30.0003 	-6.14887e-06 	-4.40371e-07 30.0003 	-6.14887e-06 	-4.40371e-07 30.0003 	-6.14887e-06 	-4.40371e-07 30.0001 	-1.83218e-07 	-9.00334e-07 30.0003 	-6.17154e-06 	-4.77987e-07 30.0003 	-6.17154e-06 	-4.77987e-07 30.0003 	-6.17154e-06 	-4.77987e-07 30.0003 	-6.17154e-06 	-4.77987e-07 30.0001 	-2.90947e-06 	-7.31465e-07 30.0003 	-6.19335e-06 	-5.14202e-07 30.0003 	-6.19335e-06 	-5.14202e-07 30.0003 	-6.19334e-06 	-5.14202e-07 30.0003 	-6.19334e-06 	-5.14202e-07 30.0001 	-2.94735e-06 	-7.75592e-07 30.0003 	-6.21425e-06 	-5.48828e-07 30.0003 	-6.21425e-06 	-5.48828e-07 30.0003 	-6.21425e-06 	-5.48828e-07 30.0003 	-6.21425e-06 	-5.48827e-07 30.0001 	-1.84748e-07 	-1.02955e-06 30.0003 	-6.23436e-06 	-5.82043e-07 30.0003 	-6.23436e-06 	-5.82043e-07 30.0003 	-6.23435e-06 	-5.82043e-07 30.0003 	-6.23435e-06 	-5.82043e-07 30.0001 	-3.02035e-06 	-8.57478e-07 30.0003 	-6.25364e-06 	-6.13882e-07 30.0003 	-6.25364e-06 	-6.13882e-07 30.0003 	-6.25364e-06 	-6.13882e-07 30.0003 	-6.25364e-06 	-6.13881e-07 30.0001 	-3.05544e-06 	-8.95486e-07 30.0003 	-6.27214e-06 	-6.44407e-07 30.0003 	-6.27214e-06 	-6.44407e-07 30.0003 	-6.27214e-06 	-6.44407e-07 30.0003 	-6.27213e-06 	-6.44407e-07 30.0001 	-1.86184e-07 	-1.14086e-06 30.0003 	-6.28985e-06 	-6.73605e-07 30.0003 	-6.28985e-06 	-6.73605e-07 30.0003 	-6.28985e-06 	-6.73605e-07 30.0003 	-6.28985e-06 	-6.73605e-07 30.0001 	-1.86635e-07 	-1.17462e-06 30.0003 	-6.30689e-06 	-7.01422e-07 30.0003 	-6.30688e-06 	-7.01422e-07 30.0003 	-6.30688e-06 	-7.01422e-07 30.0003 	-6.30688e-06 	-7.01422e-07 30.0001 	-1.87088e-07 	-1.2067e-06 30.0003 	-6.32298e-06 	-7.27849e-07 30.0003 	-6.32298e-06 	-7.27849e-07 30.0003 	-6.32298e-06 	-7.27848e-07 30.0003 	-6.32297e-06 	-7.27848e-07 30.0001 	-3.1869e-06 	-1.03101e-06 30.0003 	-6.33825e-06 	-7.52961e-07 30.0003 	-6.33825e-06 	-7.52961e-07 30.0003 	-6.33825e-06 	-7.52961e-07 30.0003 	-6.33825e-06 	-7.5296e-07 30.0001 	-1.87961e-07 	-1.26598e-06 30.0003 	-6.35277e-06 	-7.7693e-07 30.0003 	-6.35277e-06 	-7.7693e-07 30.0003 	-6.35277e-06 	-7.76929e-07 30.0003 	-6.35277e-06 	-7.76929e-07 30.0001 	-1.88377e-07 	-1.29334e-06 30.0003 	-6.3666e-06 	-7.998e-07 30.0003 	-6.3666e-06 	-7.99799e-07 30.0003 	-6.36659e-06 	-7.99799e-07 30.0003 	-6.36659e-06 	-7.99799e-07 30.0001 	-3.27632e-06 	-1.11605e-06 30.0003 	-6.37969e-06 	-8.21525e-07 30.0003 	-6.37969e-06 	-8.21525e-07 30.0003 	-6.37969e-06 	-8.21525e-07 30.0003 	-6.37969e-06 	-8.21525e-07 30.0001 	-3.30443e-06 	-1.14153e-06 30.0003 	-6.392e-06 	-8.41962e-07 30.0003 	-6.392e-06 	-8.41962e-07 30.0003 	-6.392e-06 	-8.41962e-07 30.0003 	-6.39199e-06 	-8.41961e-07 30.0001 	-1.89591e-07 	-1.36688e-06 30.0003 	-6.40364e-06 	-8.61353e-07 30.0003 	-6.40364e-06 	-8.61352e-07 30.0003 	-6.40363e-06 	-8.61352e-07 30.0003 	-6.40363e-06 	-8.61352e-07 30.0001 	-1.89981e-07 	-1.38875e-06 30.0003 	-6.4146e-06 	-8.7979e-07 30.0003 	-6.4146e-06 	-8.7979e-07 30.0003 	-6.41459e-06 	-8.7979e-07 30.0003 	-6.41459e-06 	-8.79789e-07 30.0001 	-1.90365e-07 	-1.4094e-06 30.0003 	-6.42485e-06 	-8.97271e-07 30.0003 	-6.42485e-06 	-8.97271e-07 30.0003 	-6.42485e-06 	-8.97271e-07 30.0003 	-6.42485e-06 	-8.9727e-07 30.0001 	-3.40876e-06 	-1.23053e-06 30.0003 	-6.43444e-06 	-9.13857e-07 30.0003 	-6.43444e-06 	-9.13857e-07 30.0003 	-6.43443e-06 	-9.13856e-07 30.0003 	-6.43443e-06 	-9.13856e-07 30.0001 	-3.43289e-06 	-1.24985e-06 30.0003 	-6.44333e-06 	-9.29543e-07 30.0003 	-6.44333e-06 	-9.29542e-07 30.0003 	-6.44333e-06 	-9.29542e-07 30.0003 	-6.44332e-06 	-9.29542e-07 30.0001 	-1.9146e-07 	-1.46457e-06 30.0003 	-6.45161e-06 	-9.44396e-07 30.0003 	-6.45161e-06 	-9.44396e-07 30.0003 	-6.45161e-06 	-9.44395e-07 30.0003 	-6.4516e-06 	-9.44395e-07 30.0001 	-3.47897e-06 	-1.28534e-06 30.0003 	-6.4593e-06 	-9.58397e-07 30.0003 	-6.4593e-06 	-9.58397e-07 30.0003 	-6.45929e-06 	-9.58397e-07 30.0003 	-6.45929e-06 	-9.58396e-07 30.0001 	-3.50102e-06 	-1.30161e-06 30.0003 	-6.46639e-06 	-9.71691e-07 30.0003 	-6.46638e-06 	-9.71691e-07 30.0003 	-6.46638e-06 	-9.71691e-07 30.0003 	-6.46638e-06 	-9.7169e-07 30.0001 	-