# vtk DataFile Version 2.0
track0
ASCII
DATASET POLYDATA
POINTS 15780 float
-1.001 -0.05 0.0011
-1.0008 -0.05 0.0011
-1.0006 -0.05 0.0011
-1.0004 -0.05 0.0011
-1.0002 -0.05 0.0011
-1 -0.05 0.0011
-0.9875 -0.05 0.0011
-0.975 -0.05 0.0011
-0.9625 -0.05 0.0011
-0.95 -0.05 0.0011
-0.9375 -0.05 0.00109999
-0.925 -0.05 0.00109999
-0.9125 -0.05 0.00109999
-0.9 -0.05 0.00109999
-0.8875 -0.05 0.00109999
-0.875 -0.05 0.00109999
-0.8625 -0.05 0.00109999
-0.85 -0.05 0.00109999
-0.8375 -0.05 0.00109998
-0.825 -0.0500001 0.00109998
-0.8125 -0.0500001 0.00109998
-0.8 -0.0500001 0.00109998
-0.7875 -0.0500001 0.00109998
-0.775 -0.0500001 0.00109998
-0.7625 -0.0500001 0.00109998
-0.75 -0.0500001 0.00109998
-0.7375 -0.0500001 0.00109997
-0.725 -0.0500001 0.00109997
-0.7125 -0.0500001 0.00109997
-0.7 -0.0500001 0.00109997
-0.6875 -0.0500001 0.00109997
-0.675 -0.0500001 0.00109997
-0.6625 -0.0500001 0.00109997
-0.65 -0.0500001 0.00109996
-0.6375 -0.0500001 0.00109996
-0.625 -0.0500001 0.00109996
-0.6125 -0.0500001 0.00109996
-0.6 -0.0500001 0.00109996
-0.5875 -0.0500001 0.00109996
-0.575 -0.0500001 0.00109996
-0.5625 -0.0500001 0.00109996
-0.55 -0.0500001 0.00109995
-0.5375 -0.0500001 0.00109995
-0.525 -0.0500001 0.00109995
-0.5125 -0.0500001 0.00109995
-0.5 -0.0500001 0.00109995
-0.4875 -0.0500001 0.00109995
-0.475 -0.0500001 0.00109995
-0.4625 -0.0500001 0.00109994
-0.45 -0.0500002 0.00109994
-0.4375 -0.0500002 0.00109994
-0.425 -0.0500002 0.00109994
-0.4125 -0.0500002 0.00109994
-0.4 -0.0500002 0.00109994
-0.3875 -0.0500002 0.00109994
-0.375 -0.0500002 0.00109994
-0.3625 -0.0500002 0.00109993
-0.35 -0.0500002 0.00109993
-0.3375 -0.0500002 0.00109993
-0.325 -0.0500002 0.00109993
-0.3125 -0.0500002 0.00109993
-0.3 -0.0500002 0.00109993
-0.2875 -0.0500002 0.00109993
-0.275 -0.0500002 0.00109993
-0.2625 -0.0500002 0.00109992
-0.25 -0.0500002 0.00109992
-0.2375 -0.0500002 0.00109992
-0.225 -0.0500002 0.00109992
-0.2125 -0.0500002 0.00109992
-0.2 -0.0500002 0.00109992
-0.1875 -0.0500002 0.00109992
-0.175 -0.0500002 0.00109992
-0.1625 -0.0500002 0.00109991
-0.15 -0.0500002 0.00109991
-0.1375 -0.0500002 0.00109991
-0.125 -0.0500002 0.00109991
-0.1125 -0.0500002 0.00109991
-0.1 -0.0500002 0.00109991
-0.0875 -0.0500002 0.00109991
-0.075 -0.0500002 0.00109991
-0.0625 -0.0500002 0.00109991
-0.05 -0.0500003 0.00109991
-0.0375 -0.0500003 0.0010999
-0.025 -0.0500003 0.0010999
-0.0125 -0.0500003 0.0010999
2.10607e-13 -0.0500003 0.0010999
0.0125 -0.0500003 0.0010999
0.025 -0.0500003 0.0010999
0.0375 -0.0500003 0.0010999
0.05 -0.0500003 0.0010999
0.0625 -0.0500003 0.0010999
0.075 -0.0500003 0.0010999
0.0875 -0.0500003 0.0010999
0.1 -0.0500003 0.00109989
0.1125 -0.0500003 0.00109989
0.125 -0.0500003 0.00109989
0.1375 -0.0500003 0.00109989
0.15 -0.0500003 0.00109989
0.1625 -0.0500003 0.00109989
0.175 -0.0500003 0.00109989
0.1875 -0.0500003 0.00109989
0.2 -0.0500003 0.00109989
0.2125 -0.0500003 0.00109989
0.225 -0.0500003 0.00109989
0.2375 -0.0500003 0.00109989
0.25 -0.0500003 0.00109989
0.2625 -0.0500003 0.00109988
0.275 -0.0500003 0.00109988
0.2875 -0.0500003 0.00109988
0.3 -0.0500003 0.00109988
0.3125 -0.0500003 0.00109988
0.325 -0.0500003 0.00109988
0.3375 -0.0500003 0.00109988
0.35 -0.0500003 0.00109988
0.3625 -0.0500003 0.00109988
0.375 -0.0500003 0.00109988
0.3875 -0.0500003 0.00109988
0.4 -0.0500004 0.00109988
0.4125 -0.0500004 0.00109988
0.425 -0.0500004 0.00109988
0.4375 -0.0500004 0.00109988
0.45 -0.0500004 0.00109988
0.4625 -0.0500004 0.00109988
0.475 -0.0500004 0.00109988
0.4875 -0.0500004 0.00109988
0.5 -0.0500004 0.00109988
0.5125 -0.0500004 0.00109988
0.525 -0.0500004 0.00109988
0.5375 -0.0500004 0.00109988
0.55 -0.0500004 0.00109988
0.5625 -0.0500004 0.00109988
0.575 -0.0500004 0.00109987
0.5875 -0.0500004 0.00109987
0.6 -0.0500004 0.00109987
0.6125 -0.0500004 0.00109987
0.625 -0.0500004 0.00109987
0.6375 -0.0500004 0.00109987
0.65 -0.0500004 0.00109987
0.6625 -0.0500004 0.00109987
0.675 -0.0500004 0.00109987
0.6875 -0.0500004 0.00109987
0.7 -0.0500004 0.00109987
0.7125 -0.0500004 0.00109987
0.725 -0.0500004 0.00109987
0.7375 -0.0500004 0.00109987
0.75 -0.0500004 0.00109987
0.7625 -0.0500004 0.00109987
0.775 -0.0500004 0.00109987
0.7875 -0.0500004 0.00109987
0.8 -0.0500004 0.00109987
0.8125 -0.0500004 0.00109987
0.825 -0.0500004 0.00109987
0.8375 -0.0500004 0.00109987
0.85 -0.0500004 0.00109987
0.8625 -0.0500004 0.00109987
0.875 -0.0500004 0.00109987
0.8875 -0.0500004 0.00109987
0.9 -0.0500004 0.00109987
0.9125 -0.0500005 0.00109988
0.925 -0.0500005 0.00109988
0.9375 -0.0500005 0.00109988
0.95 -0.0500005 0.00109988
0.9625 -0.0500005 0.00109988
0.975 -0.0500005 0.00109988
0.9875 -0.0500005 0.00109988
1 -0.0500005 0.00109988
1.0125 -0.0500005 0.00109988
1.025 -0.0500005 0.00109988
1.0375 -0.0500005 0.00109988
1.05 -0.0500005 0.00109988
1.0625 -0.0500005 0.00109988
1.075 -0.0500005 0.00109988
1.0875 -0.0500005 0.00109988
1.1 -0.0500005 0.00109988
1.1125 -0.0500005 0.00109988
1.125 -0.0500005 0.00109988
1.1375 -0.0500005 0.00109988
1.15 -0.0500005 0.00109988
1.1625 -0.0500005 0.00109988
1.175 -0.0500005 0.00109988
1.1875 -0.0500005 0.00109988
1.2 -0.0500005 0.00109988
1.2125 -0.0500005 0.00109988
1.225 -0.0500005 0.00109988
1.2375 -0.0500005 0.00109989
1.25 -0.0500005 0.00109989
1.2625 -0.0500005 0.00109989
1.275 -0.0500005 0.00109989
1.2875 -0.0500005 0.00109989
1.3 -0.0500005 0.00109989
1.3125 -0.0500005 0.00109989
1.325 -0.0500005 0.00109989
1.3375 -0.0500005 0.00109989
1.35 -0.0500005 0.00109989
1.3625 -0.0500005 0.00109989
1.375 -0.0500005 0.00109989
1.3875 -0.0500005 0.00109989
1.4 -0.0500005 0.00109989
1.4125 -0.0500005 0.00109989
1.425 -0.0500005 0.00109989
1.4375 -0.0500005 0.0010999
1.45 -0.0500005 0.0010999
1.4625 -0.0500005 0.0010999
1.475 -0.0500005 0.0010999
1.4875 -0.0500005 0.0010999
1.5 -0.0500006 0.0010999
1.5125 -0.0500006 0.0010999
1.525 -0.0500006 0.0010999
1.5375 -0.0500006 0.0010999
1.55 -0.0500006 0.0010999
1.5625 -0.0500006 0.0010999
1.575 -0.0500006 0.0010999
1.5875 -0.0500006 0.0010999
1.6 -0.0500006 0.0010999
1.6125 -0.0500006 0.00109991
1.625 -0.0500006 0.00109991
1.6375 -0.0500006 0.00109991
1.65 -0.0500006 0.00109991
1.6625 -0.0500006 0.00109991
1.675 -0.0500006 0.00109991
1.6875 -0.0500006 0.00109991
1.7 -0.0500006 0.00109991
1.7125 -0.0500006 0.00109991
1.725 -0.0500006 0.00109991
1.7375 -0.0500006 0.00109991
1.75 -0.0500006 0.00109991
1.7625 -0.0500006 0.00109992
1.775 -0.0500006 0.00109992
1.7875 -0.0500006 0.00109992
1.8 -0.0500006 0.00109992
1.8125 -0.0500006 0.00109992
1.825 -0.0500006 0.00109992
1.8375 -0.0500006 0.00109992
1.85 -0.0500006 0.00109992
1.8625 -0.0500006 0.00109992
1.875 -0.0500006 0.00109992
1.8875 -0.0500006 0.00109992
1.9 -0.0500006 0.00109992
1.9125 -0.0500006 0.00109993
1.925 -0.0500006 0.00109993
1.9375 -0.0500006 0.00109993
1.95 -0.0500006 0.00109993
1.9625 -0.0500006 0.00109993
1.975 -0.0500006 0.00109993
1.9875 -0.0500006 0.00109993
2 -0.0500006 0.00109993
2.0125 -0.0500006 0.00109993
2.025 -0.0500006 0.00109993
2.0375 -0.0500006 0.00109993
2.05 -0.0500006 0.00109993
2.0625 -0.0500006 0.00109994
2.075 -0.0500006 0.00109994
2.0875 -0.0500006 0.00109994
2.1 -0.0500006 0.00109994
2.1125 -0.0500006 0.00109994
2.125 -0.0500006 0.00109994
2.1375 -0.0500006 0.00109994
2.15 -0.0500006 0.00109994
2.1625 -0.0500006 0.00109994
2.175 -0.0500007 0.00109994
2.1875 -0.0500007 0.00109994
2.2 -0.0500007 0.00109994
2.2125 -0.0500007 0.00109994
2.225 -0.0500007 0.00109995
2.2375 -0.0500007 0.00109995
2.25 -0.0500007 0.00109995
2.2625 -0.0500007 0.00109995
2.275 -0.0500007 0.00109995
2.2875 -0.0500007 0.00109995
2.3 -0.0500007 0.00109995
2.3125 -0.0500007 0.00109995
2.325 -0.0500007 0.00109995
2.3375 -0.0500007 0.00109995
2.35 -0.0500007 0.00109995
2.3625 -0.0500007 0.00109995
2.375 -0.0500007 0.00109995
2.3875 -0.0500007 0.00109996
2.4 -0.0500007 0.00109996
2.4125 -0.0500007 0.00109996
2.425 -0.0500007 0.00109996
2.4375 -0.0500007 0.00109996
2.45 -0.0500007 0.00109996
2.4625 -0.0500007 0.00109996
2.475 -0.0500007 0.00109996
2.4875 -0.0500007 0.00109996
2.5 -0.0500007 0.00109996
2.5125 -0.0500007 0.00109996
2.525 -0.0500007 0.00109996
2.5375 -0.0500007 0.00109996
2.55 -0.0500007 0.00109996
2.5625 -0.0500007 0.00109997
2.575 -0.0500007 0.00109997
2.5875 -0.0500007 0.00109997
2.6 -0.0500007 0.00109997
2.6125 -0.0500007 0.00109997
2.625 -0.0500007 0.00109997
2.6375 -0.0500007 0.00109997
2.65 -0.0500007 0.00109997
2.6625 -0.0500007 0.00109997
2.675 -0.0500007 0.00109997
2.6875 -0.0500007 0.00109997
2.7 -0.0500007 0.00109997
2.7125 -0.0500007 0.00109997
2.725 -0.0500007 0.00109997
2.7375 -0.0500007 0.00109997
2.75 -0.0500007 0.00109997
2.7625 -0.0500007 0.00109998
2.775 -0.0500007 0.00109998
2.7875 -0.0500007 0.00109998
2.8 -0.0500007 0.00109998
2.8125 -0.0500007 0.00109998
2.825 -0.0500007 0.00109998
2.8375 -0.0500007 0.00109998
2.85 -0.0500007 0.00109998
2.8625 -0.0500008 0.00109998
2.875 -0.0500008 0.00109998
2.8875 -0.0500008 0.00109998
2.9 -0.0500008 0.00109998
2.9125 -0.0500008 0.00109998
2.925 -0.0500008 0.00109998
2.9375 -0.0500008 0.00109998
2.95 -0.0500008 0.00109998
2.9625 -0.0500008 0.00109998
2.975 -0.0500008 0.00109998
2.9875 -0.0500008 0.00109998
3 -0.0500008 0.00109998
3.0125 -0.0500008 0.00109999
3.025 -0.0500008 0.00109999
3.0375 -0.0500008 0.00109999
3.05 -0.0500008 0.00109999
3.0625 -0.0500008 0.00109999
3.075 -0.0500008 0.00109999
3.0875 -0.0500008 0.00109999
3.1 -0.0500008 0.00109999
3.1125 -0.0500008 0.00109999
3.125 -0.0500008 0.00109999
3.1375 -0.0500008 0.00109999
3.15 -0.0500008 0.00109999
3.1625 -0.0500008 0.00109999
3.175 -0.0500008 0.00109999
3.1875 -0.0500008 0.00109999
3.2 -0.0500008 0.00109999
3.2125 -0.0500008 0.00109999
3.225 -0.0500008 0.00109999
3.2375 -0.0500008 0.00109999
3.25 -0.0500008 0.00109999
3.2625 -0.0500008 0.00109999
3.275 -0.0500008 0.00109999
3.2875 -0.0500008 0.00109999
3.3 -0.0500008 0.00109999
3.3125 -0.0500008 0.00109999
3.325 -0.0500008 0.00109999
3.3375 -0.0500008 0.00109999
3.35 -0.0500008 0.0011
3.3625 -0.0500008 0.0011
[...]
POINT_DATA 15780
 FIELD attributes 1
U 3 15780 float
30.0002 	-7.01771e-06 	-6.30586e-06 30.0002 	-6.84322e-06 	-6.51453e-06 30.0002 	-6.66874e-06 	-6.72319e-06 30.0002 	-6.49425e-06 	-6.93186e-06 30.0002 	-6.31977e-06 	-7.14053e-06 30.0002 	-6.14528e-06 	-7.34919e-06 30.0004 	-1.23848e-05 	-1.261e-06 30.0004 	-1.23848e-05 	-1.261e-06 30.0004 	-1.23848e-05 	-1.261e-06 30.0004 	-1.23848e-05 	-1.261e-06 30.0002 	-7.03585e-08 	-6.84365e-06 30.0005 	-1.07087e-05 	-1.68706e-06 30.0005 	-1.07087e-05 	-1.68706e-06 30.0005 	-1.07087e-05 	-1.68706e-06 30.0005 	-1.07087e-05 	-1.68706e-06 30.0002 	-7.20266e-08 	-6.59606e-06 30.0005 	-9.95809e-06 	-2.08024e-06 30.0005 	-9.95808e-06 	-2.08024e-06 30.0005 	-9.95807e-06 	-2.08024e-06 30.0005 	-9.95807e-06 	-2.08024e-06 30.0003 	-4.59287e-06 	-6.24724e-06 30.0005 	-9.6913e-06 	-2.34897e-06 30.0005 	-9.69129e-06 	-2.34897e-06 30.0005 	-9.69128e-06 	-2.34896e-06 30.0005 	-9.69128e-06 	-2.34896e-06 30.0003 	-7.55955e-08 	-6.57614e-06 30.0005 	-9.52309e-06 	-2.49784e-06 30.0005 	-9.52308e-06 	-2.49784e-06 30.0005 	-9.52307e-06 	-2.49784e-06 30.0005 	-9.52306e-06 	-2.49784e-06 30.0003 	-7.73389e-08 	-6.52625e-06 30.0005 	-9.3867e-06 	-2.55608e-06 30.0005 	-9.38669e-06 	-2.55608e-06 30.0005 	-9.38668e-06 	-2.55608e-06 30.0005 	-9.38668e-06 	-2.55608e-06 30.0003 	-4.26664e-06 	-6.08527e-06 30.0005 	-9.27926e-06 	-2.55831e-06 30.0005 	-9.27925e-06 	-2.55831e-06 30.0005 	-9.27924e-06 	-2.55831e-06 30.0005 	-9.27923e-06 	-2.5583e-06 30.0003 	-4.19902e-06 	-5.97788e-06 30.0006 	-9.18703e-06 	-2.53044e-06 30.0006 	-9.18702e-06 	-2.53044e-06 30.0006 	-9.18701e-06 	-2.53044e-06 30.0006 	-9.18701e-06 	-2.53044e-06 30.0003 	-8.26015e-08 	-6.20126e-06 30.0006 	-9.09694e-06 	-2.4812e-06 30.0006 	-9.09694e-06 	-2.4812e-06 30.0006 	-9.09693e-06 	-2.48119e-06 30.0006 	-9.09692e-06 	-2.48119e-06 30.0003 	-8.43436e-08 	-6.05423e-06 30.0006 	-9.00447e-06 	-2.41362e-06 30.0006 	-9.00446e-06 	-2.41362e-06 30.0006 	-9.00445e-06 	-2.41362e-06 30.0006 	-9.00445e-06 	-2.41362e-06 30.0003 	-8.60914e-08 	-5.88781e-06 30.0006 	-8.90831e-06 	-2.32974e-06 30.0006 	-8.9083e-06 	-2.32973e-06 30.0006 	-8.90829e-06 	-2.32973e-06 30.0006 	-8.90829e-06 	-2.32973e-06 30.0003 	-3.93757e-06 	-5.36346e-06 30.0006 	-8.80825e-06 	-2.23276e-06 30.0006 	-8.80824e-06 	-2.23276e-06 30.0006 	-8.80824e-06 	-2.23275e-06 30.0006 	-8.80823e-06 	-2.23275e-06 30.0003 	-3.86377e-06 	-5.16475e-06 30.0006 	-8.70394e-06 	-2.12415e-06 30.0006 	-8.70394e-06 	-2.12415e-06 30.0006 	-8.70393e-06 	-2.12415e-06 30.0006 	-8.70392e-06 	-2.12415e-06 30.0003 	-9.13292e-08 	-5.28457e-06 30.0006 	-8.59575e-06 	-2.00508e-06 30.0006 	-8.59574e-06 	-2.00508e-06 30.0006 	-8.59574e-06 	-2.00508e-06 30.0006 	-8.59573e-06 	-2.00508e-06 30.0003 	-3.70415e-06 	-4.71939e-06 30.0007 	-8.48437e-06 	-1.87668e-06 30.0007 	-8.48436e-06 	-1.87668e-06 30.0007 	-8.48435e-06 	-1.87668e-06 30.0007 	-8.48435e-06 	-1.87668e-06 30.0003 	-3.61905e-06 	-4.47431e-06 30.0007 	-8.37101e-06 	-1.73884e-06 30.0007 	-8.371e-06 	-1.73884e-06 30.0007 	-8.371e-06 	-1.73884e-06 30.0007 	-8.37099e-06 	-1.73884e-06 30.0004 	-9.65589e-08 	-4.54319e-06 30.0007 	-8.25945e-06 	-1.59804e-06 30.0007 	-8.25944e-06 	-1.59804e-06 30.0007 	-8.25944e-06 	-1.59804e-06 30.0007 	-8.25943e-06 	-1.59804e-06 30.0004 	-9.83057e-08 	-4.27124e-06 30.0007 	-8.14744e-06 	-1.46323e-06 30.0007 	-8.14744e-06 	-1.46323e-06 30.0007 	-8.14744e-06 	-1.46323e-06 30.0007 	-8.14743e-06 	-1.46323e-06 30.0004 	-1.00044e-07 	-3.98927e-06 30.0007 	-8.01937e-06 	-1.32072e-06 30.0007 	-8.01937e-06 	-1.32072e-06 30.0007 	-8.01936e-06 	-1.32072e-06 30.0007 	-8.01936e-06 	-1.32072e-06 30.0004 	-3.25071e-06 	-3.37795e-06 30.0007 	-7.88057e-06 	-1.16801e-06 30.0007 	-7.88057e-06 	-1.16801e-06 30.0007 	-7.88056e-06 	-1.16801e-06 30.0007 	-7.88056e-06 	-1.16801e-06 30.0004 	-1.03477e-07 	-3.40288e-06 30.0007 	-7.74464e-06 	-1.00788e-06 30.0007 	-7.74464e-06 	-1.00788e-06 30.0007 	-7.74464e-06 	-1.00788e-06 30.0007 	-7.74464e-06 	-1.00788e-06 30.0004 	-1.05196e-07 	-3.10327e-06 30.0007 	-7.61051e-06 	-8.41865e-07 30.0007 	-7.61051e-06 	-8.41864e-07 30.0007 	-7.61051e-06 	-8.41864e-07 30.0007 	-7.6105e-06 	-8.41864e-07 30.0004 	-2.93155e-06 	-2.48789e-06 30.0007 	-7.47473e-06 	-6.70214e-07 30.0007 	-7.47473e-06 	-6.70214e-07 30.0007 	-7.47473e-06 	-6.70214e-07 30.0007 	-7.47473e-06 	-6.70214e-07 30.0004 	-2.82508e-06 	-2.18313e-06 30.0007 	-7.34262e-06 	-4.97061e-07 30.0007 	-7.34262e-06 	-4.97061e-07 30.0007 	-7.34262e-06 	-4.97061e-07 30.0007 	-7.34262e-06 	-4.97061e-07 30.0004 	-1.10293e-07 	-2.17112e-06 30.0007 	-7.21482e-06 	-3.17334e-07 30.0007 	-7.21482e-06 	-3.17334e-07 30.0007 	-7.21482e-06 	-3.17333e-07 30.0007 	-7.21482e-06 	-3.17333e-07 30.0004 	-1.11973e-07 	-1.85338e-06 30.0007 	-7.09808e-06 	-1.38228e-07 30.0007 	-7.09808e-06 	-1.38228e-07 30.0007 	-7.09808e-06 	-1.38228e-07 30.0007 	-7.09808e-06 	-1.38228e-07 30.0004 	-1.13632e-07 	-1.54904e-06 30.0007 	-6.98475e-06 	4.08422e-08 30.0007 	-6.98475e-06 	4.08422e-08 30.0007 	-6.98475e-06 	4.08422e-08 30.0007 	-6.98475e-06 	4.08422e-08 30.0004 	-2.43864e-06 	-9.5851e-07 30.0007 	-6.87114e-06 	2.14654e-07 30.0007 	-6.87114e-06 	2.14654e-07 30.0007 	-6.87114e-06 	2.14654e-07 30.0007 	-6.87114e-06 	2.14654e-07 30.0004 	-2.34704e-06 	-6.82309e-07 30.0007 	-6.75302e-06 	3.90707e-07 30.0007 	-6.75303e-06 	3.90707e-07 30.0007 	-6.75303e-06 	3.90707e-07 30.0007 	-6.75303e-06 	3.90707e-07 30.0004 	-1.1862e-07 	-7.09784e-07 30.0007 	-6.64255e-06 	5.64365e-07 30.0007 	-6.64255e-06 	5.64365e-07 30.0007 	-6.64255e-06 	5.64365e-07 30.0007 	-6.64256e-06 	5.64365e-07 30.0004 	-2.16672e-06 	-1.45448e-07 30.0007 	-6.53556e-06 	7.27393e-07 30.0007 	-6.53556e-06 	7.27393e-07 30.0007 	-6.53556e-06 	7.27394e-07 30.0007 	-6.53556e-06 	7.27394e-07 30.0004 	-2.08104e-06 	1.13829e-07 30.0007 	-6.43025e-06 	8.7883e-07 30.0007 	-6.43025e-06 	8.7883e-07 30.0007 	-6.43025e-06 	8.78831e-07 30.0007 	-6.43025e-06 	8.78831e-07 30.0004 	-1.23541e-07 	7.0566e-08 30.0007 	-6.3227e-06 	1.01779e-06 30.0007 	-6.3227e-06 	1.01779e-06 30.0007 	-6.32271e-06 	1.01779e-06 30.0007 	-6.32271e-06 	1.01779e-06 30.0004 	-1.25134e-07 	3.15798e-07 30.0007 	-6.21633e-06 	1.14062e-06 30.0007 	-6.21633e-06 	1.14062e-06 30.0007 	-6.21633e-06 	1.14062e-06 30.0007 	-6.21634e-06 	1.14062e-06 30.0004 	-1.26714e-07 	5.45518e-07 30.0007 	-6.11505e-06 	1.25632e-06 30.0007 	-6.11505e-06 	1.25632e-06 30.0007 	-6.11505e-06 	1.25633e-06 30.0007 	-6.11506e-06 	1.25633e-06 30.0004 	-1.76422e-06 	1.03208e-06 30.0007 	-6.0223e-06 	1.37127e-06 30.0007 	-6.0223e-06 	1.37127e-06 30.0007 	-6.02231e-06 	1.37127e-06 30.0007 	-6.02231e-06 	1.37128e-06 30.0004 	-1.29803e-07 	9.36937e-07 30.0007 	-5.94262e-06 	1.4885e-06 30.0007 	-5.94262e-06 	1.4885e-06 30.0007 	-5.94263e-06 	1.4885e-06 30.0007 	-5.94263e-06 	1.4885e-06 30.0004 	-1.31298e-07 	1.10456e-06 30.0007 	-5.87139e-06 	1.59289e-06 30.0007 	-5.87139e-06 	1.59289e-06 30.0007 	-5.87139e-06 	1.59289e-06 30.0007 	-5.8714e-06 	1.59289e-06 30.0004 	-1.5913e-06 	1.53877e-06 30.0007 	-5.80175e-06 	1.67932e-06 30.0007 	-5.80175e-06 	1.67932e-06 30.0007 	-5.80176e-06 	1.67932e-06 30.0007 	-5.80176e-06 	1.67932e-06 30.0003 	-1.54408e-06 	1.67821e-06 30.0007 	-5.73368e-06 	1.75011e-06 30.0007 	-5.73369e-06 	1.75012e-06 30.0007 	-5.73369e-06 	1.75012e-06 30.0007 	-5.73369e-06 	1.75012e-06 30.0003 	-1.35966e-07 	1.52472e-06 30.0006 	-5.66852e-06 	1.80982e-06 30.0006 	-5.66852e-06 	1.80982e-06 30.0006 	-5.66852e-06 	1.80982e-06 30.0006 	-5.66853e-06 	1.80982e-06 30.0003 	-1.375e-07 	1.63227e-06 30.0006 	-5.6084e-06 	1.85995e-06 30.0006 	-5.60841e-06 	1.85995e-06 30.0006 	-5.60841e-06 	1.85995e-06 30.0006 	-5.60842e-06 	1.85995e-06 30.0003 	-1.38947e-07 	1.724e-06 30.0006 	-5.55406e-06 	1.90044e-06 30.0006 	-5.55407e-06 	1.90045e-06 30.0006 	-5.55407e-06 	1.90045e-06 30.0006 	-5.55408e-06 	1.90045e-06 30.0003 	-1.38868e-06 	2.07104e-06 30.0006 	-5.50518e-06 	1.9311e-06 30.0006 	-5.50519e-06 	1.9311e-06 30.0006 	-5.50519e-06 	1.9311e-06 30.0006 	-5.50519e-06 	1.9311e-06 30.0003 	-1.36163e-06 	2.13097e-06 30.0006 	-5.46142e-06 	1.95184e-06 30.0006 	-5.46142e-06 	1.95184e-06 30.0006 	-5.46142e-06 	1.95184e-06 30.0006 	-5.46143e-06 	1.95184e-06 30.0003 	-1.42909e-07 	1.90827e-06 30.0006 	-5.42258e-06 	1.96278e-06 30.0006 	-5.42259e-06 	1.96279e-06 30.0006 	-5.42259e-06 	1.96279e-06 30.0006 	-5.42259e-06 	1.96279e-06 30.0003 	-1.3232e-06 	2.20767e-06 30.0006 	-5.38857e-06 	1.96431e-06 30.0006 	-5.38858e-06 	1.96431e-06 30.0006 	-5.38858e-06 	1.96431e-06 30.0006 	-5.38858e-06 	1.96432e-06 30.0003 	-1.31141e-06 	2.22555e-06 30.0006 	-5.35934e-06 	1.9569e-06 30.0006 	-5.35935e-06 	1.9569e-06 30.0006 	-5.35935e-06 	1.95691e-06 30.0006 	-5.35935e-06 	1.95691e-06 30.0003 	-1.46704e-07 	1.96617e-06 30.0005 	-5.33481e-06 	1.9411e-06 30.0005 	-5.33482e-06 	1.9411e-06 30.0005 	-5.33482e-06 	1.9411e-06 30.0005 	-5.33482e-06 	1.9411e-06 30.0003 	-1.47927e-07 	1.96057e-06 30.0005 	-5.31477e-06 	1.91791e-06 30.0005 	-5.31477e-06 	1.91791e-06 30.0005 	-5.31477e-06 	1.91791e-06 30.0005 	-5.31478e-06 	1.91791e-06 30.0003 	-1.49121e-07 	1.94424e-06 30.0005 	-5.29913e-06 	1.88797e-06 30.0005 	-5.29913e-06 	1.88797e-06 30.0005 	-5.29913e-06 	1.88798e-06 30.0005 	-5.29914e-06 	1.88798e-06 30.0003 	-1.30878e-06 	2.17901e-06 30.0005 	-5.28773e-06 	1.85187e-06 30.0005 	-5.28774e-06 	1.85187e-06 30.0005 	-5.28774e-06 	1.85187e-06 30.0005 	-5.28775e-06 	1.85187e-06 30.0003 	-1.51427e-07 	1.8823e-06 30.0005 	-5.28041e-06 	1.81004e-06 30.0005 	-5.28041e-06 	1.81005e-06 30.0005 	-5.28042e-06 	1.81005e-06 30.0005 	-5.28042e-06 	1.81005e-06 30.0003 	-1.52532e-07 	1.83818e-06 30.0005 	-5.27693e-06 	1.76312e-06 30.0005 	-5.27693e-06 	1.76312e-06 30.0005 	-5.27693e-06 	1.76312e-06 30.0005 	-5.27694e-06 	1.76312e-06 30.0003 	-1.34795e-06 	2.04409e-06 30.0005 	-5.27705e-06 	1.71158e-06 30.0005 	-5.27706e-06 	1.71158e-06 30.0005 	-5.27706e-06 	1.71158e-06 30.0005 	-5.27706e-06 	1.71158e-06 30.0003 	-1.36801e-06 	1.98425e-06 30.0005 	-5.28061e-06 	1.65595e-06 30.0005 	-5.28061e-06 	1.65595e-06 30.0005 	-5.28061e-06 	1.65595e-06 30.0005 	-5.28062e-06 	1.65595e-06 30.0002 	-1.55703e-07 	1.66281e-06 30.0005 	-5.28738e-06 	1.59663e-06 30.0005 	-5.28738e-06 	1.59663e-06 30.0005 	-5.28738e-06 	1.59663e-06 30.0005 	-5.28739e-06 	1.59663e-06 30.0002 	-1.56748e-07 	1.59256e-06 30.0004 	-5.2973e-06 	1.53411e-06 30.0004 	-5.29731e-06 	1.53411e-06 30.0004 	-5.29731e-06 	1.53411e-06 30.0004 	-5.29731e-06 	1.53411e-06 30.0002 	-1.57814e-07 	1.5177e-06 30.0004 	-5.31022e-06 	1.46884e-06 30.0004 	-5.31022e-06 	1.46884e-06 30.0004 	-5.31022e-06 	1.46884e-06 30.0004 	-5.31022e-06 	1.46884e-06 30.0002 	-1.47965e-06 	1.69064e-06 30.0004 	-5.32573e-06 	1.40138e-06 30.0004 	-5.32573e-06 	1.40138e-06 30.0004 	-5.32573e-06 	1.40138e-06 30.0004 	-5.32574e-06 	1.40138e-06 30.0002 	-1.51417e-06 	1.60715e-06 30.0004 	-5.34364e-06 	1.33213e-06 30.0004 	-5.34364e-06 	1.33213e-06 30.0004 	-5.34364e-06 	1.33213e-06 30.0004 	-5.34364e-06 	1.33214e-06 30.0002 	-1.61057e-07 	1.27187e-06 30.0004 	-5.36366e-06 	1.26142e-06 30.0004 	-5.36367e-06 	1.26143e-06 30.0004 	-5.36367e-06 	1.26143e-06 30.0004 	-5.36367e-06 	1.26143e-06 30.0002 	-1.58952e-06 	1.43252e-06 30.0004 	-5.38546e-06 	1.18975e-06 30.0004 	-5.38547e-06 	1.18975e-06 30.0004 	-5.38547e-06 	1.18975e-06 30.0004 	-5.38547e-06 	1.18975e-06 30.0002 	-1.63001e-06 	1.34244e-06 30.0004 	-5.40907e-06 	1.11742e-06 30.0004 	-5.40907e-06 	1.11742e-06 30.0004 	-5.40908e-06 	1.11742e-06 30.0004 	-5.40908e-06 	1.11742e-06 30.0002 	-1.64092e-07 	1.00609e-06 30.0004 	-5.43426e-06 	1.04475e-06 30.0004 	-5.43426e-06 	1.04475e-06 30.0004 	-5.43426e-06 	1.04475e-06 30.0004 	-5.43426e-06 	1.04475e-06 30.0002 	-1.65055e-07 	9.15614e-07 30.0004 	-5.45989e-06 	9.72214e-07 30.0004 	-5.4599e-06 	9.72214e-07 30.0004 	-5.4599e-06 	9.72214e-07 30.0004 	-5.4599e-06 	9.72215e-07 30.0002 	-1.65959e-07 	8.24992e-07 30.0004 	-5.48592e-06 	8.99436e-07 30.0004 	-5.48592e-06 	8.99436e-07 30.0004 	-5.48592e-06 	8.99437e-07 30.0004 	-5.48592e-06 	8.99437e-07 30.0002 	-1.80693e-06 	9.7545e-07 30.0004 	-5.51269e-06 	8.25905e-07 30.0004 	-5.51269e-06 	8.25906e-07 30.0004 	-5.51269e-06 	8.25906e-07 30.0004 	-5.51269e-06 	8.25906e-07 30.0002 	-1.67662e-07 	6.43626e-07 30.0003 	-5.54244e-06 	7.51948e-07 30.0003 	-5.54244e-06 	7.51948e-07 30.0003 	-5.54244e-06 	7.51948e-07 30.0003 	-5.54244e-06 	7.51948e-07 30.0002 	-1.68504e-07 	5.52633e-07 30.0003 	-5.57691e-06 	6.77407e-07 30.0003 	-5.57691e-06 	6.77407e-07 30.0003 	-5.57691e-06 	6.77407e-07 30.0003 	-5.57691e-06 	6.77407e-07 30.0002 	-1.9553e-06 	7.01346e-07 30.0003 	-5.61375e-06 	6.04336e-07 30.0003 	-5.61375e-06 	6.04336e-07 30.0003 	-5.61375e-06 	6.04337e-07 30.0003 	-5.61375e-06 	6.04337e-07 30.0002 	-2.0075e-06 	6.11716e-07 30.0003 	-5.64991e-06 	5.34629e-07 30.0003 	-5.64991e-06 	5.34629e-07 30.0003 	-5.64992e-06 	5.3463e-07 30.0003 	-5.64992e-06 	5.3463e-07 30.0002 	-1.71015e-07 	2.80934e-07 30.0003 	-5.68104e-06 	4.67609e-07 30.0003 	-5.68104e-06 	4.67609e-07 30.0003 	-5.68104e-06 	4.67609e-07 30.0003 	-5.68104e-06 	4.67609e-07 30.0002 	-1.71852e-07 	1.97321e-07 30.0003 	-5.70946e-06 	4.03169e-07 30.0003 	-5.70946e-06 	4.03169e-07 30.0003 	-5.70946e-06 	4.03169e-07 30.0003 	-5.70946e-06 	4.03169e-07 30.0002 	-1.72651e-07 	1.16392e-07 30.0003 	-5.73762e-06 	3.39205e-07 30.0003 	-5.73762e-06 	3.39205e-07 30.0003 	-5.73762e-06 	3.39205e-07 30.0003 	-5.73763e-06 	3.39205e-07 30.0002 	-2.2008e-06 	2.74117e-07 30.0003 	-5.76559e-06 	2.75237e-07 30.0003 	-5.76559e-06 	2.75237e-07 30.0003 	-5.7656e-06 	2.75237e-07 30.0003 	-5.7656e-06 	2.75237e-07 30.0002 	-2.24773e-06 	1.96376e-07 30.0003 	-5.79245e-06 	2.10761e-07 30.0003 	-5.79245e-06 	2.10761e-07 30.0003 	-5.79245e-06 	2.10761e-07 30.0003 	-5.79245e-06 	2.10761e-07 30.0002 	-1.74875e-07 	-1.0915e-07 30.0003 	-5.82053e-06 	1.48765e-07 30.0003 	-5.82053e-06 	1.48765e-07 30.0003 	-5.82053e-06 	1.48765e-07 30.0003 	-5.82053e-06 	1.48765e-07 30.0002 	-2.34156e-06 	4.46955e-08 30.0003 	-5.84979e-06 	8.99711e-08 30.0003 	-5.84979e-06 	8.99711e-08 30.0003 	-5.84979e-06 	8.99711e-08 30.0003 	-5.84979e-06 	8.99711e-08 30.0002 	-2.38888e-06 	-2.90779e-08 30.0003 	-5.88023e-06 	3.47957e-08 30.0003 	-5.88023e-06 	3.47957e-08 30.0003 	-5.88023e-06 	3.47957e-08 30.0003 	-5.88023e-06 	3.47957e-08 30.0002 	-1.76935e-07 	-3.30771e-07 30.0003 	-5.91212e-06 	-1.70752e-08 30.0003 	-5.91212e-06 	-1.70752e-08 30.0003 	-5.91212e-06 	-1.70752e-08 30.0003 	-5.91212e-06 	-1.70752e-08 30.0002 	-1.77594e-07 	-4.01806e-07 30.0003 	-5.94524e-06 	-6.9049e-08 30.0003 	-5.94524e-06 	-6.9049e-08 30.0003 	-5.94524e-06 	-6.9049e-08 30.0003 	-5.94524e-06 	-6.9049e-08 30.0002 	-1.78201e-07 	-4.67078e-07 30.0003 	-5.97719e-06 	-1.23309e-07 30.0003 	-5.97719e-06 	-1.23309e-07 30.0003 	-5.97719e-06 	-1.23309e-07 30.0003 	-5.97719e-06 	-1.23309e-07 30.0002 	-2.58045e-06 	-3.01356e-07 30.0003 	-6.00497e-06 	-1.77952e-07 30.0003 	-6.00497e-06 	-1.77952e-07 30.0003 	-6.00496e-06 	-1.77952e-07 30.0003 	-6.00496e-06 	-1.77952e-07 30.0002 	-1.7939e-07 	-5.84888e-07 30.0003 	-6.02913e-06 	-2.29206e-07 30.0003 	-6.02913e-06 	-2.29206e-07 30.0003 	-6.02913e-06 	-2.29206e-07 30.0003 	-6.02912e-06 	-2.29206e-07 30.0002 	-1.80005e-07 	-6.42148e-07 30.0003 	-6.05236e-06 	-2.76169e-07 30.0003 	-6.05236e-06 	-2.76169e-07 30.0003 	-6.05236e-06 	-2.76169e-07 30.0003 	-6.05236e-06 	-2.76169e-07 30.0002 	-2.70851e-06 	-4.78957e-07 30.0003 	-6.07621e-06 	-3.19652e-07 30.0003 	-6.07621e-06 	-3.19652e-07 30.0003 	-6.07621e-06 	-3.19652e-07 30.0003 	-6.07621e-06 	-3.19652e-07 30.0002 	-2.74956e-06 	-5.34001e-07 30.0003 	-6.10057e-06 	-3.61175e-07 30.0003 	-6.10057e-06 	-3.61175e-07 30.0003 	-6.10057e-06 	-3.61175e-07 30.0003 	-6.10057e-06 	-3.61175e-07 30.0002 	-1.81764e-07 	-8.03783e-07 30.0003 	-6.12463e-06 	-4.0137e-07 30.0003 	-6.12463e-06 	-4.0137e-07 30.0003 	-6.12463e-06 	-4.0137e-07 30.0003 	-6.12463e-06 	-4.0137e-07 30.0001 	-1.82313e-07 	-8.53101e-07 30.0003 	-6.14801e-06 	-4.40363e-07 30.0003 	-6.14801e-06 	-4.40363e-07 30.0003 	-6.14801e-06 	-4.40363e-07 30.0003 	-6.14801e-06 	-4.40363e-07 30.0001 	-1.82839e-07 	-9.00309e-07 30.0003 	-6.17065e-06 	-4.77986e-07 30.0003 	-6.17065e-06 	-4.77986e-07 30.0003 	-6.17065e-06 	-4.77986e-07 30.0003 	-6.17065e-06 	-4.77986e-07 30.0001 	-2.90907e-06 	-7.31433e-07 30.0003 	-6.19243e-06 	-5.14204e-07 30.0003 	-6.19243e-06 	-5.14204e-07 30.0003 	-6.19243e-06 	-5.14204e-07 30.0003 	-6.19243e-06 	-5.14204e-07 30.0001 	-2.94695e-06 	-7.75559e-07 30.0003 	-6.21347e-06 	-5.48819e-07 30.0003 	-6.21347e-06 	-5.48819e-07 30.0003 	-6.21347e-06 	-5.48818e-07 30.0003 	-6.21346e-06 	-5.48818e-07 30.0001 	-1.84389e-07 	-1.02951e-06 30.0003 	-6.23364e-06 	-5.82028e-07 30.0003 	-6.23364e-06 	-5.82028e-07 30.0003 	-6.23364e-06 	-5.82028e-07 30.0003 	-6.23364e-06 	-5.82028e-07 30.0001 	-3.01998e-06 	-8.57448e-07 30.0003 	-6.2529e-06 	-6.13873e-07 30.0003 	-6.2529e-06 	-6.13873e-07 30.0003 	-6.2529e-06 	-6.13873e-07 30.0003 	-6.2529e-06 	-6.13873e-07 30.0001 	-3.05508e-06 	-8.95457e-07 30.0003 	-6.27141e-06 	-6.44401e-07 30.0003 	-6.27141e-06 	-6.44401e-07 30.0003 	-6.2714e-06 	-6.444e-07 30.0003 	-6.2714e-06 	-6.444e-07 30.0001 	-1.85844e-07 	-1.14083e-06 30.0003 	-6.28929e-06 	-6.736e-07 30.0003 	-6.28928e-06 	-6.736e-07 30.0003 	-6.28928e-06 	-6.73599e-07 30.0003 	-6.28928e-06 	-6.73599e-07 30.0001 	-1.86323e-07 	-1.17458e-06 30.0003 	-6.3063e-06 	-7.01417e-07 30.0003 	-6.3063e-06 	-7.01417e-07 30.0003 	-6.3063e-06 	-7.01417e-07 30.0003 	-6.3063e-06 	-7.01416e-07 30.0001 	-1.86772e-07 	-1.20667e-06 30.0003 	-6.32238e-06 	-7.27851e-07 30.0003 	-6.32238e-06 	-7.27851e-07 30.0003 	-6.32237e-06 	-7.27851e-07 30.0003 	-6.32237e-06 	-7.27851e-07 30.0001 	-3.18657e-06 	-1.03098e-06 30.0003 	-6.33764e-06 	-7.52963e-07 30.0003 	-6.33764e-06 	-7.52963e-07 30.0003 	-6.33764e-06 	-7.52963e-07 30.0003 	-6.33763e-06 	-7.52962e-07 30.0001 	-1.87638e-07 	-1.26595e-06 30.0003 	-6.35218e-06 	-7.76931e-07 30.0003 	-6.35218e-06 	-7.76931e-07 30.0003 	-6.35218e-06 	-7.7693e-07 30.0003 	-6.35218e-06 	-7.7693e-07 30.0001 	-1.88067e-07 	-1.2933e-06 30.0003 	-6.36598e-06 	-7.99802e-07 30.0003 	-6.36598e-06 	-7.99802e-07 30.0003 	-6.36598e-06 	-7.99802e-07 30.0003 	-6.36597e-06 	-7.99802e-07 30.0001 	-3.27598e-06 	-1.11603e-06 30.0003 	-6.37905e-06 	-8.21534e-07 30.0003 	-6.37905e-06 	-8.21533e-07 30.0003 	-6.37905e-06 	-8.21533e-07 30.0003 	-6.37904e-06 	-8.21533e-07 30.0001 	-3.3041e-06 	-1.14151e-06 30.0003 	-6.39145e-06 	-8.41967e-07 30.0003 	-6.39145e-06 	-8.41967e-07 30.0003 	-6.39145e-06 	-8.41967e-07 30.0003 	-6.39145e-06 	-8.41966e-07 30.0001 	-1.89284e-07 	-1.36685e-06 30.0003 	-6.4031e-06 	-8.61364e-07 30.0003 	-6.4031e-06 	-8.61363e-07 30.0003 	-6.4031e-06 	-8.61363e-07 30.0003 	-6.4031e-06 	-8.61363e-07 30.0001 	-1.89676e-07 	-1.38872e-06 30.0003 	-6.41404e-06 	-8.79803e-07 30.0003 	-6.41403e-06 	-8.79803e-07 30.0003 	-6.41403e-06 	-8.79802e-07 30.0003 	-6.41403e-06 	-8.79802e-07 30.0001 	-1.90055e-07 	-1.40938e-06 30.0003 	-6.42428e-06 	-8.97291e-07 30.0003 	-6.42427e-06 	-8.97291e-07 30.0003 	-6.42427e-06 	-8.9729e-07 30.0003 	-6.42427e-06 	-8.9729e-07 30.0001 	-3.40846e-06 	-1.23051e-06 30.0003 	-6.43384e-06 	-9.13879e-07 30.0003 	-6.43384e-06 	-9.13878e-07 30.0003 	-6.43384e-06 	-9.13878e-07 30.0003 	-6.43384e-06 	-9.13878e-07 30.0001 	-3.4326e-06 	-1.24984e-06 30.0003 	-6.44285e-06 	-9.29563e-07 30.0003 	-6.44285e-06 	-9.29563e-07 30.0003 	-6.44285e-06 	-9.29562e-07 30.0003 	-6.44284e-06 	-9.29562e-07 30.0001 	-1.91201e-07 	-1.46454e-06 30.0003 	-6.45121e-06 	-9.44412e-07 30.0003 	-6.45121e-06 	-9.44412e-07 30.0003 	-6.4512e-06 	-9.44412e-07 30.0003 	-6.4512e-06 	-9.44411e-07 30.0001 	-3.47875e-06 	-1.28533e-06 30.0003 	-6.45889e-06 	-9.58421e-07 30.0003 	-6.45889e-06 	-9.5842e-07 30.0003 	-6.45889e-06 	-9.5842e-07 30.0003 	-6.45888e-06 	-9.5842e-07 30.0001 	-3.50081e-06 	-1.3016e-06 30.0003 	-6.46599e-06 	-9.71715e-07 30.0003 	-6.46599e-06 	-9.71714e-07 30.0003 	-6.46599e-06 	-9.71714e-07 30.0003 	-6.465