# vtk DataFile Version 2.0
track0
ASCII
DATASET POLYDATA
POINTS 15224 float
-1.001 -0.05 0.0011
-1.00088 -0.05 0.0011
-1.00076 -0.05 0.00109999
-1.00064 -0.05 0.00109999
-1.00052 -0.05 0.00109999
-1.0004 -0.05 0.00109998
-0.975398 -0.05 0.00109925
-0.9504 -0.0499999 0.00109824
-0.925402 -0.0499999 0.00109723
-0.900404 -0.0499998 0.00109622
-0.875406 -0.0499998 0.00109521
-0.850407 -0.0499998 0.00109409
-0.825407 -0.0499996 0.00109261
-0.800408 -0.0499995 0.00109113
-0.775408 -0.0499993 0.00108965
-0.750409 -0.0499991 0.00108817
-0.737914 -0.049999 0.00108724
-0.72542 -0.0499989 0.00108571
-0.712925 -0.0499987 0.00108418
-0.700431 -0.0499985 0.00108266
-0.687936 -0.0499983 0.00108113
-0.675431 -0.0499983 0.00108006
-0.662926 -0.0499981 0.00107837
-0.65042 -0.0499979 0.00107668
-0.637915 -0.0499977 0.001075
-0.62541 -0.0499974 0.00107332
-0.612898 -0.0499972 0.00107201
-0.600387 -0.0499969 0.00107009
-0.587876 -0.0499967 0.00106817
-0.575365 -0.0499964 0.00106625
-0.562854 -0.0499961 0.00106433
-0.550338 -0.0499961 0.00106277
-0.537822 -0.0499958 0.00106061
-0.525307 -0.0499954 0.00105845
-0.512791 -0.049995 0.0010563
-0.500275 -0.0499947 0.00105415
-0.487751 -0.0499942 0.00105237
-0.475226 -0.0499937 0.00105005
-0.462701 -0.0499933 0.00104775
-0.450177 -0.0499928 0.00104544
-0.437652 -0.0499923 0.00104315
-0.42513 -0.0499924 0.00104121
-0.412607 -0.0499917 0.00103877
-0.400084 -0.049991 0.00103633
-0.387562 -0.0499904 0.0010339
-0.375039 -0.0499897 0.00103148
-0.362534 -0.0499889 0.00102968
-0.350028 -0.0499881 0.00102804
-0.337522 -0.0499873 0.0010264
-0.325017 -0.0499865 0.00102477
-0.312511 -0.0499856 0.00102314
-0.306259 -0.0499851 0.00102239
-0.300007 -0.0499842 0.00102108
-0.293755 -0.0499832 0.00101977
-0.287503 -0.0499823 0.00101847
-0.281251 -0.0499813 0.00101716
-0.275 -0.0499801 0.00101652
-0.26875 -0.049979 0.00101553
-0.2625 -0.0499778 0.00101453
-0.25625 -0.0499767 0.00101354
-0.25 -0.0499756 0.00101255
-0.24375 -0.049975 0.00101215
-0.2375 -0.0499736 0.00101143
-0.23125 -0.0499722 0.00101071
-0.225 -0.0499708 0.00100999
-0.21875 -0.0499694 0.00100927
-0.2125 -0.0499678 0.00100912
-0.20625 -0.0499662 0.00100875
-0.2 -0.0499645 0.00100837
-0.19375 -0.0499628 0.00100799
-0.1875 -0.0499611 0.00100762
-0.18125 -0.0499604 0.00100784
-0.175 -0.0499584 0.00100792
-0.16875 -0.0499564 0.001008
-0.1625 -0.0499544 0.00100809
-0.15625 -0.0499525 0.00100817
-0.153125 -0.0499513 0.00100834
-0.15 -0.049949 0.00100861
-0.146875 -0.0499468 0.00100888
-0.14375 -0.0499445 0.00100915
-0.140625 -0.0499423 0.00100942
-0.1375 -0.0499403 0.0010097
-0.134374 -0.0499378 0.00101017
-0.131249 -0.0499352 0.00101065
-0.128124 -0.0499326 0.00101112
-0.124999 -0.04993 0.0010116
-0.121874 -0.0499286 0.001012
-0.118749 -0.0499258 0.00101264
-0.115624 -0.0499229 0.00101329
-0.112499 -0.04992 0.00101393
-0.109374 -0.0499172 0.00101458
-0.106249 -0.049915 0.00101511
-0.103124 -0.0499119 0.00101589
-0.0999989 -0.0499088 0.00101666
-0.0968739 -0.0499057 0.00101743
-0.0937488 -0.0499026 0.00101821
-0.0906239 -0.0499009 0.00101884
-0.0874989 -0.0498976 0.00101973
-0.0843739 -0.0498943 0.00102062
-0.0812489 -0.0498909 0.00102151
-0.0781239 -0.0498876 0.0010224
-0.0749989 -0.0498852 0.00102315
-0.0718739 -0.0498816 0.00102415
-0.0687489 -0.0498781 0.00102515
-0.0656238 -0.0498745 0.00102615
-0.0624988 -0.0498709 0.00102716
-0.0593738 -0.0498691 0.00102799
-0.0562488 -0.0498654 0.0010291
-0.0531238 -0.0498616 0.00103021
-0.0499988 -0.0498578 0.00103132
-0.0468738 -0.049854 0.00103243
-0.0437488 -0.0498513 0.00103339
-0.0406238 -0.0498473 0.0010346
-0.0374988 -0.0498433 0.00103582
-0.0343738 -0.0498393 0.00103703
-0.0312488 -0.0498353 0.00103825
-0.0281239 -0.0498333 0.00103929
-0.0249989 -0.049829 0.00104061
-0.0218739 -0.0498248 0.00104192
-0.018749 -0.0498206 0.00104324
-0.015624 -0.0498163 0.00104456
-0.012499 -0.0498134 0.00104572
-0.00937393 -0.0498089 0.00104713
-0.00624889 -0.0498044 0.00104854
-0.00312386 -0.0498 0.00104996
1.18282e-06 -0.0497955 0.00105138
0.00312621 -0.0497933 0.00105261
0.00625124 -0.0497886 0.00105412
0.00937627 -0.0497839 0.00105563
0.0125013 -0.0497792 0.00105714
0.0156263 -0.0497745 0.00105865
0.0187516 -0.0497713 0.00106
0.0218768 -0.0497664 0.00106159
0.025002 -0.0497615 0.00106319
0.0281273 -0.0497566 0.0010648
0.0312525 -0.0497516 0.0010664
0.0343793 -0.0497493 0.00106782
0.037506 -0.0497441 0.00106951
0.0406327 -0.049739 0.0010712
0.0437595 -0.0497338 0.0010729
0.0468862 -0.0497287 0.00107459
0.050011 -0.0497252 0.00107611
0.0531358 -0.0497199 0.00107788
0.0562606 -0.0497145 0.00107966
0.0593853 -0.0497091 0.00108143
0.0625101 -0.0497037 0.00108322
0.065635 -0.0497012 0.0010848
0.0687598 -0.0496956 0.00108666
0.0718846 -0.04969 0.00108851
0.0750094 -0.0496844 0.00109037
0.0781342 -0.0496788 0.00109224
0.0812601 -0.0496751 0.00109391
0.084386 -0.0496693 0.00109585
0.0875119 -0.0496635 0.00109778
0.0906377 -0.0496577 0.00109972
0.0937636 -0.0496518 0.00110166
0.0968915 -0.0496491 0.00110341
0.100019 -0.0496431 0.00110541
0.103147 -0.0496371 0.00110742
0.106275 -0.049631 0.00110944
0.109403 -0.049625 0.00111146
0.112529 -0.049621 0.00111328
0.115655 -0.0496148 0.00111535
0.118781 -0.0496086 0.00111743
0.121907 -0.0496023 0.00111952
0.125032 -0.049596 0.0011216
0.128157 -0.0495932 0.00112348
0.131283 -0.0495867 0.00112562
0.134408 -0.0495803 0.00112776
0.137533 -0.0495738 0.00112991
0.140658 -0.0495673 0.00113206
0.143784 -0.0495632 0.001134
0.146909 -0.0495565 0.0011362
0.150035 -0.0495499 0.00113841
0.153161 -0.0495432 0.00114062
0.156287 -0.0495365 0.00114283
0.159413 -0.0495335 0.00114483
0.16254 -0.0495266 0.00114709
0.165667 -0.0495197 0.00114935
0.168794 -0.0495129 0.00115162
0.171921 -0.049506 0.00115389
0.175047 -0.0495015 0.00115593
0.178172 -0.0494945 0.00115824
0.181298 -0.0494874 0.00116056
0.184424 -0.0494803 0.00116288
0.18755 -0.0494732 0.0011652
0.190674 -0.04947 0.00116729
0.193799 -0.0494628 0.00116965
0.196923 -0.0494556 0.00117201
0.200048 -0.0494483 0.00117438
0.203172 -0.049441 0.00117675
0.206296 -0.0494364 0.00117887
0.209421 -0.0494289 0.00118127
0.212545 -0.0494215 0.00118367
0.215669 -0.0494141 0.00118608
0.218794 -0.0494066 0.00118849
0.221919 -0.0494032 0.00119066
0.225045 -0.0493956 0.0011931
0.22817 -0.049388 0.00119554
0.231296 -0.0493804 0.00119799
0.234421 -0.0493728 0.00120044
0.237548 -0.0493679 0.00120263
0.240674 -0.0493601 0.0012051
0.2438 -0.0493524 0.00120758
0.246927 -0.0493446 0.00121006
0.250053 -0.0493367 0.00121255
0.25318 -0.0493332 0.00121478
0.256307 -0.0493253 0.00121728
0.259434 -0.0493173 0.00121979
0.262561 -0.0493094 0.0012223
0.265688 -0.0493014 0.00122481
0.268813 -0.0492963 0.00122706
0.271938 -0.0492883 0.00122958
0.275062 -0.0492802 0.00123212
0.278187 -0.049272 0.00123465
0.281312 -0.0492639 0.00123719
0.284435 -0.0492603 0.00123947
0.287558 -0.049252 0.00124201
0.290681 -0.0492438 0.00124456
0.293804 -0.0492355 0.00124711
0.296927 -0.0492273 0.00124967
0.30005 -0.0492221 0.00125195
0.303174 -0.0492137 0.0012545
0.306297 -0.0492053 0.00125707
0.309421 -0.0491969 0.00125964
0.312544 -0.0491885 0.00126221
0.315668 -0.0491848 0.00126451
0.318793 -0.0491763 0.00126708
0.321917 -0.0491678 0.00126965
0.325041 -0.0491593 0.00127224
0.328166 -0.0491508 0.00127482
0.331291 -0.0491454 0.00127712
0.334416 -0.0491368 0.0012797
0.337541 -0.0491282 0.00128228
0.340666 -0.0491195 0.00128487
0.343791 -0.0491109 0.00128746
0.346916 -0.049107 0.00128978
0.350042 -0.0490983 0.00129237
0.353168 -0.0490896 0.00129496
0.356294 -0.0490808 0.00129755
0.35942 -0.049072 0.00130016
0.362549 -0.0490666 0.00130246
0.365679 -0.0490577 0.00130505
0.368808 -0.0490489 0.00130765
0.371938 -0.04904 0.00131025
0.375068 -0.0490311 0.00131286
0.378205 -0.0490271 0.00131519
0.381343 -0.0490182 0.00131779
0.384481 -0.0490092 0.00132039
0.387619 -0.0490002 0.001323
0.390756 -0.0489912 0.00132561
0.393889 -0.0489856 0.00132791
0.397022 -0.0489766 0.0013305
0.400155 -0.0489675 0.0013331
0.403288 -0.0489585 0.0013357
0.406421 -0.0489494 0.0013383
0.409551 -0.0489454 0.00134062
0.412682 -0.0489363 0.0013432
0.415813 -0.0489272 0.00134579
0.418943 -0.0489181 0.00134838
0.422074 -0.0489089 0.00135098
0.425204 -0.0489032 0.00135326
0.428334 -0.048894 0.00135584
0.431464 -0.0488848 0.00135842
0.434594 -0.0488756 0.001361
0.437724 -0.0488664 0.00136359
0.440854 -0.0488623 0.00136588
0.443984 -0.0488531 0.00136845
0.447114 -0.0488438 0.00137102
0.450244 -0.0488345 0.0013736
0.453374 -0.0488252 0.00137618
0.456504 -0.0488195 0.00137844
0.459634 -0.0488101 0.001381
0.462763 -0.0488008 0.00138355
0.465893 -0.0487915 0.00138612
0.469023 -0.0487821 0.00138869
0.472152 -0.048778 0.00139096
0.475282 -0.0487686 0.0013935
0.478411 -0.0487592 0.00139604
0.481541 -0.0487498 0.00139859
0.48467 -0.0487404 0.00140115
0.4878 -0.0487346 0.00140338
0.490929 -0.0487252 0.0014059
0.494058 -0.0487157 0.00140843
0.497187 -0.0487063 0.00141097
0.500317 -0.0486968 0.00141351
0.503446 -0.0486927 0.00141574
0.506575 -0.0486832 0.00141825
0.509704 -0.0486737 0.00142076
0.512833 -0.0486642 0.00142328
0.515962 -0.0486547 0.0014258
0.519091 -0.0486488 0.00142799
0.52222 -0.0486393 0.00143048
0.525348 -0.0486298 0.00143297
0.528477 -0.0486203 0.00143547
0.531606 -0.0486107 0.00143797
0.534734 -0.0486066 0.00144016
0.537863 -0.048597 0.00144263
0.540992 -0.0485875 0.0014451
0.54412 -0.0485779 0.00144757
0.547249 -0.0485684 0.00145005
0.550377 -0.0485624 0.00145221
0.553506 -0.0485529 0.00145465
0.556634 -0.0485433 0.0014571
0.559762 -0.0485337 0.00145955
0.562891 -0.0485242 0.001462
0.566019 -0.0485199 0.00146416
0.569147 -0.0485104 0.00146657
0.572275 -0.0485008 0.001469
0.575403 -0.0484912 0.00147143
0.578532 -0.0484816 0.00147386
0.58166 -0.0484756 0.00147597
0.584788 -0.0484661 0.00147836
0.587915 -0.0484565 0.00148076
0.591043 -0.0484469 0.00148316
0.594171 -0.0484373 0.00148557
0.597299 -0.0484331 0.00148768
0.600427 -0.0484235 0.00149006
0.603555 -0.0484139 0.00149244
0.606683 -0.0484043 0.00149483
[...]
POINT_DATA 15224
 FIELD attributes 2
p 1 15224 float
-4.96026 -4.96183 -4.96341 -4.96498 -4.96655 -4.96812 -5.48128 -5.9937 -6.51656 -7.03943 -7.55929 -8.45255 -9.35076 -10.249 -11.1452 -11.9992 -12.5759 -13.1661 -13.7562 -14.3464 -15.0047 -15.8372 -16.6614 -17.4857 -18.31 -19.131 -20.0872 -21.0411 -21.9949 -22.9488 -23.9085 -25.0755 -26.2335 -27.3915 -28.5494 -29.7103 -31.1115 -32.5125 -33.9136 -35.3146 -36.7317 -38.3922 -40.0434 -41.6947 -43.3459 -45.0083 -46.8399 -48.6725 -50.505 -52.3376 -54.4772 -55.3031 -56.1638 -57.1278 -58.0917 -59.0737 -59.9728 -60.8699 -61.7669 -62.6767 -63.583 -64.3313 -65.0808 -65.8191 -66.5573 -67.2986 -67.9309 -68.5711 -69.2113 -69.8581 -70.5139 -71.0475 -71.5815 -72.0968 -72.6015 -73.0674 -73.1686 -73.3262 -73.4837 -73.6412 -73.8627 -74.0053 -74.1598 -74.3142 -74.4687 -74.6513 -74.7489 -74.8568 -74.9647 -75.0726 -75.2048 -75.2657 -75.3269 -75.388 -75.4491 -75.5155 -75.5279 -75.5427 -75.5574 -75.5722 -75.5909 -75.5598 -75.5283 -75.4968 -75.4653 -75.4349 -75.3585 -75.2823 -75.206 -75.1297 -75.0545 -74.9371 -74.8179 -74.6987 -74.5795 -74.4595 -74.3005 -74.1404 -73.9803 -73.8201 -73.6598 -73.4634 -73.2641 -73.0648 -72.8654 -72.6645 -72.4299 -72.1934 -71.9569 -71.7205 -71.4834 -71.2162 -70.9455 -70.6748 -70.404 -70.1315 -69.8317 -69.5298 -69.228 -68.9261 -68.6239 -68.298 -67.9683 -67.6385 -67.3088 -66.9773 -66.6246 -66.2698 -65.915 -65.5602 -65.2051 -64.8319 -64.4547 -64.0774 -63.7001 -63.321 -62.9264 -62.5295 -62.1326 -61.7357 -61.3385 -60.9295 -60.5164 -60.1032 -59.69 -59.275 -58.8507 -58.4242 -57.9978 -57.5713 -57.1445 -56.7116 -56.2746 -55.8376 -55.4006 -54.9618 -54.5192 -54.0745 -53.6298 -53.1851 -52.7403 -52.2946 -51.8452 -51.3958 -50.9463 -50.4955 -50.046 -49.5944 -49.1429 -48.6914 -48.2397 -47.7916 -47.3399 -46.8882 -46.4364 -45.9832 -45.5351 -45.085 -44.6349 -44.1848 -43.7345 -43.2914 -42.8448 -42.3983 -41.9517 -41.5037 -41.0644 -40.6232 -40.1819 -39.7407 -39.2992 -38.8684 -38.4343 -38.0003 -37.5663 -37.131 -36.7075 -36.2822 -35.8568 -35.4315 -35.0059 -34.5932 -34.1777 -33.7622 -33.3467 -32.9301 -32.527 -32.1221 -31.7172 -31.3123 -30.9069 -30.516 -30.1224 -29.7287 -29.3351 -28.9403 -28.5604 -28.1787 -27.797 -27.4153 -27.033 -26.6661 -26.2969 -25.9277 -25.5585 -25.1881 -24.8334 -24.4769 -24.1204 -23.7639 -23.4067 -23.0662 -22.7234 -22.3805 -22.0377 -21.6936 -21.3664 -21.0373 -20.7083 -20.3793 -20.0494 -19.7364 -19.4213 -19.1063 -18.7912 -18.4749 -18.1756 -17.8747 -17.5738 -17.2729 -16.9711 -16.6864 -16.3996 -16.1128 -15.826 -15.538 -15.2667 -14.9937 -14.7206 -14.4476 -14.1734 -13.9159 -13.6564 -13.3968 -13.1373 -12.8765 -12.6321 -12.386 -12.1398 -11.8936 -11.6463 -11.415 -11.1815 -10.9481 -10.7147 -10.4798 -10.2604 -10.0392 -9.81791 -9.59663 -9.37391 -9.16645 -8.95679 -8.74714 -8.53748 -8.32624 -8.12942 -7.93015 -7.73089 -7.53162 -7.33076 -7.14399 -6.95438 -6.76478 -6.57517 -6.38391 -6.20711 -6.03053 -5.85395 -5.67738 -5.50133 -5.33873 -5.17717 -5.0156 -4.85404 -4.69339 -4.54338 -4.39302 -4.24265 -4.09228 -3.94174 -3.80058 -3.65793 -3.51528 -3.37263 -3.22908 -3.09597 -2.96376 -2.83155 -2.69934 -2.56792 -2.44773 -2.32955 -2.21137 -2.09319 -1.97597 -1.86848 -1.75876 -1.64905 -1.53933 -1.42695 -1.32366 -1.21729 -1.11092 -1.00455 -0.895295 -0.796441 -0.695434 -0.594427 -0.493412 -0.390549 -0.298433 -0.204853 -0.111272 -0.0176924 0.0770942 0.161865 0.247856 0.333848 0.419839 0.50696 0.584953 0.664336 0.743718 0.823101 0.903746 0.976028 1.04953 1.12304 1.19655 1.27117 1.3379 1.40576 1.47362 1.54147 1.61036 1.67184 1.73426 1.79667 1.85909 1.92238 1.97873 2.03598 2.09323 2.15048 2.20859 2.26016 2.31249 2.36482 2.41714 2.4702 2.51705 2.56464 2.61224 2.65983 2.70817 2.75067 2.79384 2.83702 2.8802 2.92407 2.96246 3.00153 3.04059 3.07965 3.11943 3.15392 3.18895 3.22399 3.25902 3.29464 3.32519 3.35631 3.38743 3.41855 3.45025 3.47726 3.50479 3.53232 3.55985 3.58799 3.6114 3.63463 3.65786 3.68109 3.70447 3.72311 3.74224 3.76138 3.78051 3.80159 3.81923 3.83778 3.85632 3.87487 3.89329 3.92023 3.95877 3.99587 4.03194 4.06647 4.08979 4.11457 4.13807 4.15998 4.18382 4.19575 4.20662 4.21841 4.23105 4.24533 4.25754 4.27862 4.29881 4.31806 4.34573 4.3745 4.42062 4.47323 4.52584 4.57001 4.59303 4.61414 4.63605 4.65796 4.67499 4.68681 4.69436 4.7019 4.70878 4.70946 4.69654 4.68122 4.66643 4.65165 4.6324 4.59364 4.55085 4.50807 4.46365 4.41198 4.36031 4.32515 4.29319 4.26122 4.23472 4.06301 4.05628 4.04827 4.04026 4.02618 4.03927 4.04069 4.04211 4.04569 4.03721 3.97285 3.8893 3.76922 3.64914 3.51729 3.28296 3.04292 2.80288 2.62581 2.45363 2.2618 2.09221 1.92261 1.71285 1.63781 1.8133 1.98441 2.15551 2.32662 2.31341 2.23862 2.15763 2.07665 1.99566 1.90565 1.60119 1.30184 1.00249 0.703137 0.499338 0.282659 0.0874751 -0.107711 -0.302899 -0.392174 -0.214181 -0.0321897 0.149799 0.331784 0.448131 0.610373 0.77842 0.946467 1.11451 1.27247 1.37126 1.45697 1.54268 1.62839 1.70453 1.6505 1.58463 1.51877 1.4529 1.3146 1.17438 1.02482 0.87526 0.725701 0.596762 0.515488 0.429783 0.344079 0.258375 0.186505 0.173161 0.157173 0.141185 0.125197 0.112505 0.112389 0.110151 0.107913 0.105675 0.10427 0.101836 0.0977096 0.093583 0.0894564 0.0860722 0.0839149 0.0804514 0.0769879 0.0735245 0.0705832 0.0696744 0.0676969 0.0657194 0.0637421 0.0620916 0.0625115 0.0620846 0.0616577 0.0612308 0.061159 0.0557498 0.0494956 0.0432728 0.037082 0.0318868
-4.77162 -4.77317 -4.77473 -4.77629 -4.77785 -4.7794 -5.30867 -5.83793 -6.35355 -6.80821 -7.26285 -8.04867 -8.83462 -9.66767 -10.9449 -12.1827 -12.6498 -13.1515 -13.6531 -14.1547 -14.8166 -15.6487 -16.4487 -17.2488 -18.0489 -18.8407 -19.8175 -20.7713 -21.7251 -22.6789 -23.6173 -24.7765 -25.9537 -27.1308 -28.308 -29.4988 -30.912 -32.3626 -33.8131 -35.2637 -36.723 -38.3481 -40.0781 -41.8081 -43.5386 -45.3204 -47.1587 -49.1756 -51.1926 -53.2277 -55.7044 -56.5886 -57.4721 -58.4912 -59.4217 -60.3383 -61.3535 -62.3592 -63.2802 -64.0951 -64.8974 -65.7259 -66.5531 -67.355 -68.0966 -68.8327 -69.5315 -70.2296 -70.9202 -71.5653 -72.2058 -72.766 -73.325 -73.8641 -74.4277 -74.9985 -75.1176 -75.2724 -75.4233 -75.5742 -75.783 -75.9196 -76.0678 -76.216 -76.3718 -76.5592 -76.6694 -76.7779 -76.8805 -76.983 -77.0982 -77.1536 -77.2114 -77.2693 -77.33 -77.3977 -77.4086 -77.4217 -77.4342 -77.4467 -77.4631 -77.4291 -77.3971 -77.3651 -77.3332 -77.3028 -77.2216 -77.142 -77.0636 -76.9853 -76.9083 -76.7841 -76.6616 -76.5391 -76.4141 -76.2886 -76.118 -75.9494 -75.7848 -75.6202 -75.4562 -75.25 -75.0451 -74.8402 -74.6296 -74.418 -74.1663 -73.9159 -73.6726 -73.4293 -73.1862 -72.9217 -72.6578 -72.394 -72.123 -71.867 -71.8487 -71.8303 -71.812 -71.7937 -71.7754 -71.454 -71.1326 -70.8214 -70.5103 -70.1995 -69.8592 -69.52 -69.1793 -68.8291 -68.4806 -68.1033 -67.7268 -67.3589 -66.9937 -66.6291 -66.2382 -65.8502 -65.4579 -65.0577 -64.6612 -64.2396 -63.8197 -63.4061 -62.998 -62.5913 -62.1617 -61.7373 -61.3056 -60.8691 -60.4388 -59.9865 -59.5374 -59.0912 -58.6536 -58.2187 -57.7626 -57.3148 -56.8567 -56.3971 -55.9466 -55.4749 -55.0083 -54.5418 -54.0859 -53.6347 -53.1627 -52.7004 -52.2288 -51.7572 -51.2979 -50.8174 -50.3445 -49.8717 -49.4052 -48.9493 -48.4718 -48.0045 -47.5317 -47.0589 -46.602 -46.122 -45.6523 -45.1826 -44.7156 -44.2643 -43.7895 -43.3258 -42.8602 -42.3946 -41.9481 -41.4763 -41.0175 -40.5588 -40.1 -39.6611 -39.1971 -38.7472 -38.2972 -37.8473 -37.4137 -36.9613 -36.5209 -36.0806 -35.64 -35.2111 -34.7713 -34.3412 -33.9113 -33.4814 -33.0601 -32.6351 -32.2169 -31.7986 -31.3799 -30.965 -30.554 -30.1475 -29.7414 -29.3353 -28.9302 -28.8321 -28.7348 -28.6375 -28.5402 -28.4431 -28.1464 -27.8497 -27.553 -27.2554 -26.9581 -26.5743 -26.1926 -25.8115 -25.4304 -25.05 -24.6801 -24.3133 -23.9465 -23.5791 -23.2132 -22.8562 -22.5037 -22.1519 -21.8001 -21.4503 -21.1072 -20.7698 -20.4325 -20.0944 -19.7591 -19.4292 -19.1057 -18.7829 -18.4602 -18.1406 -17.8254 -17.5167 -17.2089 -16.9011 -16.5964 -16.2967 -16.0012 -15.7081 -15.4162 -15.1263 -14.8414 -14.5596 -14.2808 -14.0035 -13.7277 -13.4574 -13.1887 -12.924 -12.6619 -12.4007 -12.1444 -11.8888 -11.638 -11.3902 -11.1427 -10.9005 -10.6582 -10.4209 -10.1871 -9.95339 -9.72401 -9.49463 -9.27001 -9.04904 -8.82809 -8.61201 -8.39593 -8.18431 -7.97697 -7.76964 -7.5663 -7.36296 -7.1638 -6.96843 -6.77306 -6.58253 -6.392 -6.20507 -6.02186 -5.83866 -5.65958 -5.48049 -5.30531 -5.13343 -4.96156 -4.79462 -4.62813 -4.46462 -4.30397 -4.14394 -3.9876 -3.83238 -3.67981 -3.52912 -3.37947 -3.23403 -3.09003 -2.94767 -2.80682 -2.66773 -2.53129 -2.3973 -2.26473 -2.13298 -2.00328 -1.87683 -1.75306 -1.62994 -1.50719 -1.38747 -1.26956 -1.15513 -1.04088 -0.926694 -0.814963 -0.706372 -0.600468 -0.494616 -0.38878 -0.285209 -0.184468 -0.0864921 0.0115013 0.109608 0.206304 0.298942 0.389791 0.480512 0.571217 0.660804 0.746135 0.829867 0.913603 0.997482 1.08075 1.15877 1.23604 1.31317 1.39029 1.46716 1.5115 1.55549 1.59949 1.64348 1.68787 1.71505 1.74223 1.7694 1.79658 1.82319 1.88964 1.95559 2.02134 2.08708 2.15097 2.2129 2.27325 2.33359 2.39411 2.45128 2.50957 2.56499 2.62027 2.67555 2.72646 2.78071 2.83119 2.88167 2.93228 2.9769 3.02805 3.07402 3.11979 3.16556 3.20452 3.25169 3.29309 3.33449 3.37608 3.40924 3.45394 3.49151 3.52889 3.56556 3.59479 3.63496 3.66964 3.7033 3.73511 3.76043 3.79777 3.83031 3.86068 3.88816 3.9108 3.9444 3.97389 4.00079 4.0246 4.04354 4.07474 4.1008 4.12476 4.14641 4.16297 4.19134 4.21475 4.23616 4.25515 4.2689 4.29929 4.31841 4.3334 4.3455 4.3468 4.38214 4.40799 4.43539 4.46658 4.4882 4.52163 4.54639 4.57116 4.59633 4.61699 4.64642 4.66696 4.68621 4.70546 4.72101 4.73704 4.74849 4.75994 4.77139 4.78472 4.80991 4.8351 4.8373 4.80028 4.76326 4.85245 4.94164 4.96385 4.91988 4.8759 4.94671 5.01751 5.0223 4.95874 4.89518 4.95854 5.02189 5.00955 4.92155 4.83353 4.86961 4.90569 4.87431 4.77314 4.67197 4.74093 4.80988 4.76517 4.615 4.46481 4.37277 4.29652 4.23923 4.18195 4.10068 4.23468 4.24771 4.26058 4.27346 4.15696 4.20611 4.09598 3.98586 3.88201 3.68313 3.52428 3.3363 3.13874 2.94117 2.73616 2.29474 1.89103 1.53804 1.33614 1.31497 1.53114 1.6975 1.96807 2.37062 2.60588 2.73469 2.76289 2.74834 2.67283 2.5151 2.17559 1.88305 1.59445 1.30716 1.07569 0.714541 0.535884 -0.0257596 -0.512432 -0.622815 -0.472369 -0.292763 -0.113185 0.0340165 0.128583 0.205136 0.25243 0.412322 0.572173 0.680073 0.826302 0.903226 0.980113 1.06354 1.08927 1.06358 0.985286 0.906773 0.998132 1.05917 1.07492 0.924838 0.774276 0.623713 0.455185 0.454461 0.370228 0.284029 0.19783 0.105805 0.12397 0.108989 0.0926435 0.0762973 0.054727 0.073016 0.0716138 0.0690958 0.0665774 0.0594987 0.0707727 0.0675498 0.0632115 0.0588728 0.0512274 0.0586054 0.0559514 0.0523255 0.0486994 0.0427053 0.0489072 0.0476772 0.0455722 0.0434669 0.0395501 0.0458453 0.0461943 0.0456706 0.0451466 0.0433463 0.0492269 0.0449832 0.0386464 0.0322997 0.0251624
-4.579 -4.5805 -4.582 -4.5835 -4.585 -4.58651 -5.10147 -5.5751 -6.04878 -6.5205 -6.9796 -7.78878 -8.67147 -9.55418 -10.3794 -11.5206 -12.0255 -12.5437 -13.062 -13.5719 -14.1701 -14.9834 -15.7649 -16.5191 -17.2734 -18.0203 -18.9932 -19.9424 -20.8917 -21.8452 -22.7867 -23.9838 -25.1756 -26.3949 -27.6144 -28.8263 -30.3204 -31.8944 -33.4687 -34.9482 -36.492 -38.3122 -40.0842 -42.0396 -43.9934 -45.8773 -47.9417 -50.2421 -52.5503 -54.8466 -57.6387 -58.5417 -59.4828 -60.4196 -61.3133 -62.5133 -63.6438 -64.6909 -65.7174 -66.7469 -67.8335 -68.8315 -69.7452 -70.6554 -71.579 -72.5804 -73.4345 -74.2281 -75.0141 -75.8025 -76.6542 -77.3556 -77.9707 -78.5863 -79.3451 -80.0515 -80.2007 -80.3884 -80.5741 -80.7552 -80.9887 -81.1541 -81.3423 -81.525 -81.7046 -81.9083 -82.0385 -82.1718 -82.3095 -82.4528 -82.5993 -82.6843 -82.7705 -82.854 -82.9346 -83.018 -83.0363 -83.0572 -83.0796 -83.1033 -83.1285 -83.101 -83.0733 -83.0464 -83.0208 -82.9964 -82.914 -82.8338 -82.7488 -82.6626 -82.5777 -82.4375 -82.2966 -82.1567 -82.0263 -81.8963 -81.7162 -81.5377 -81.3469 -81.1565 -80.9675 -80.7274 -80.4862 -80.2454 -80.0191 -79.7967 -79.5309 -79.2601 -78.9781 -78.6964 -78.4153 -78.2592 -78.1032 -77.9473 -77.7914 -77.6404 -77.4728 -77.3053 -77.143 -76.9835 -76.824 -76.4854 -76.1313 -75.7713 -75.4116 -75.0533 -74.662 -74.2708 -73.8798 -73.489 -73.1166 -72.7127 -72.292 -71.8715 -71.4513 -71.0348 -70.5911 -70.1473 -69.7037 -69.2603 -68.8238 -68.3612 -67.8959 -67.4316 -66.9675 -66.5052 -66.3375 -66.1697 -66.0019 -65.8341 -65.6709 -65.3576 -65.0443 -64.731 -64.4178 -64.104 -63.6051 -63.1118 -62.6187 -62.1257 -61.6318 -61.1185 -60.6166 -60.1148 -59.6132 -59.1041 -58.5729 -58.0631 -57.5534 -57.0437 -56.5339 -56.0067 -55.4949 -54.9832 -54.4631 -53.9417 -53.4026 -52.8777 -52.3642 -51.8508 -51.3377 -50.8084 -50.297 -49.7857 -49.2523 -48.7368 -48.2046 -47.677 -47.1652 -46.6573 -46.1508 -45.6302 -45.1301 -44.6182 -44.0965 -43.5962 -43.0806 -42.5697 -42.0603 -41.5672 -41.0751 -40.5698 -40.0819 -39.5796 -39.0791 -38.5981 -38.1032 -37.6139 -37.1254 -36.6424 -36.1728 -35.6917 -35.2162 -34.7418 -34.2673 -33.8101 -33.3438 -32.8839 -32.424 -31.9634 -31.5114 -31.0617 -30.6156 -30.1702 -29.7248 -29.2811 -29.1696 -29.0589 -28.9482 -28.8375 -28.7271 -28.4066 -28.0862 -27.7658 -27.4439 -27.124 -26.7028 -26.2876 -25.8732 -25.4588 -25.048 -24.6389 -24.2418 -23.8446 -23.4465 -23.0558 -22.6596 -22.2765 -21.8965 -21.5187 -21.1449 -20.7667 -20.395 -20.0318 -19.6736 -19.3177 -18.9571 -18.5983 -18.2528 -17.913 -17.5745 -17.2318 -16.891 -16.5602 -16.2379 -15.9171 -15.5923 -15.2681 -14.9527 -14.6491 -14.3458 -14.0385 -13.7323 -13.4341 -13.1443 -12.8573 -12.5667 -12.2809 -11.9996 -11.7214 -11.4512 -11.1768 -10.9098 -10.6449 -10.3801 -10.1247 -9.86852 -9.61954 -9.37036 -9.12051 -8.87599 -8.63752 -8.40292 -8.16883 -7.93496 -7.70191 -7.65291 -7.60463 -7.55636 -7.50808 -7.4597 -7.28743 -7.11514 -6.94236 -6.76958 -6.59957 -6.38946 -6.1822 -5.97531 -5.7687 -5.56839 -5.3683 -5.17529 -4.98199 -4.7884 -4.6045 -4.41573 -4.23431 -4.05413 -3.8775 -3.70804 -3.5318 -3.35977 -3.19228 -3.03103 -2.87305 -2.70997 -2.54745 -2.39187 -2.2463 -2.10075 -1.94814 -1.79549 -1.65151 -1.51614 -1.38078 -1.23971 -1.09866 -0.965978 -0.841952 -0.717942 -0.586449 -0.455121 -0.333488 -0.217857 -0.102859 0.017872 0.135467 0.247338 0.35536 0.45988 0.572345 0.678146 0.780744 0.882403 0.978857 1.08134 1.17545 1.26946 1.36347 1.45231 1.54481 1.63089 1.71697 1.80316 1.88711 1.96868 2.04743 2.12606 2.20468 2.28308 2.2901 2.29684 2.30358 2.31032 2.31707 2.38309 2.4491 2.5151 2.58122 2.64449 2.713 2.77941 2.84566 2.9119 2.97321 3.03697 3.09723 3.15748 3.21787 3.26965 3.3303 3.38534 3.43994 3.49267 3.53936 3.59336 3.64462 3.6936 3.73867 3.77922 3.82942 3.87488 3.9187 3.95995 3.99672 4.04075 4.08157 4.12037 4.15539 4.18662 4.22745 4.26211 4.29563 4.32853 4.35631 4.39161 4.42326 4.45182 4.47883 4.50161 4.53395 4.55958 4.58392 4.60936 4.62962 4.65733 4.68016 4.70099 4.72147 4.73743 4.76313 4.78126 4.79899 4.81692 4.8304 4.85146 4.86593 4.88031 4.89469 4.90563 4.92289 4.93399 4.94508 4.95618 4.96555 4.97706 4.98362 4.99018 4.99674 5.00245 5.02486 5.04815 5.0626 5.07098 5.077 5.09925 5.11655 5.12597 5.13441 5.13784 5.14716 5.14796 5.14876 5.15464 5.15683 5.1607 5.15885 5.15383 5.14881 5.14005 5.1116 5.04697 5.01333 5.00388 4.9863 5.01541 5.02498 5.03307 5.03958 5.04352 5.04548 5.04396 5.04245 5.04093 5.03941 5.03861 5.03781 5.03938 5.0411 5.01684 5.01943 5.0007 4.97953 4.95651 4.88605 4.88434 4.84253 4.80365 4.76935 4.65834 4.66976 4.63538 4.58944 4.53006 4.39746 4.26365 4.2 4.13435 4.05119 3.88503 4.20926 4.28676 4.32922 4.33728 4.13226 4.30074 4.20464 4.07832 3.93139 3.53277 3.5733 3.21227 2.85126 2.49635 2.06914 1.71739 1.52822 1.3391 1.15001 1.02876 1.04297 1.05061 1.05825 1.06589 1.10274 1.47343 1.84431 2.21538 2.58664 2.58796 3.20882 3.29317 3.32763 3.26853 2.58953 2.91966 2.59925 2.27915 1.95937 1.29024 0.491162 -0.216941 -0.464065 -0.710052 -0.842428 -0.69067 -0.532154 -0.410101 -0.287976 -0.193293 -0.131228 -0.14354 -0.155843 -0.107091 -0.00115249 0.129806 0.205188 0.283103 0.36156 0.386085 0.342129 0.435135 0.547776 0.662638 0.726039 0.738507 0.724533 0.589184 0.437828 0.26966 0.267392 0.254468 0.179935 0.0932864 0.00116974 0.0184418 0.0290015 0.0181341 0.00147355 -0.0201077 -0.002462 0.00991307 0.0111132 0.00835548 0.00128526 0.0120934 0.0190297 0.0180643 0.0135425 0.00587977 0.0129248 0.0171895 0.0163062 0.0125365 0.00650673 0.0124619 0.0162977 0.01655 0.0143313 0.0103746 0.0164899 0.0210727 0.0228346 0.0222233 0.0203806 0.0261283 0.0306614 0.0298063 0.0234397 0.0163094