# vtk DataFile Version 2.0
track0
ASCII
DATASET POLYDATA
POINTS 15224 float
-1.001 -0.05 0.0011
-1.00088 -0.05 0.0011
-1.00076 -0.05 0.00109999
-1.00064 -0.05 0.00109999
-1.00052 -0.05 0.00109999
-1.0004 -0.05 0.00109998
-0.975398 -0.05 0.00109925
-0.9504 -0.0499999 0.00109824
-0.925402 -0.0499999 0.00109723
-0.900404 -0.0499998 0.00109622
-0.875406 -0.0499998 0.00109521
-0.850407 -0.0499998 0.00109409
-0.825407 -0.0499996 0.00109261
-0.800408 -0.0499995 0.00109113
-0.775408 -0.0499993 0.00108965
-0.750409 -0.0499991 0.00108817
-0.737914 -0.049999 0.00108724
-0.72542 -0.0499989 0.00108571
-0.712925 -0.0499987 0.00108418
-0.700431 -0.0499985 0.00108266
-0.687936 -0.0499983 0.00108113
-0.675431 -0.0499983 0.00108006
-0.662926 -0.0499981 0.00107837
-0.65042 -0.0499979 0.00107668
-0.637915 -0.0499977 0.001075
-0.62541 -0.0499974 0.00107332
-0.612898 -0.0499972 0.00107201
-0.600387 -0.0499969 0.00107009
-0.587876 -0.0499967 0.00106817
-0.575365 -0.0499964 0.00106625
-0.562854 -0.0499961 0.00106433
-0.550338 -0.0499961 0.00106277
-0.537822 -0.0499958 0.00106061
-0.525307 -0.0499954 0.00105845
-0.512791 -0.049995 0.0010563
-0.500275 -0.0499947 0.00105415
-0.487751 -0.0499942 0.00105237
-0.475226 -0.0499937 0.00105005
-0.462701 -0.0499933 0.00104775
-0.450177 -0.0499928 0.00104544
-0.437652 -0.0499923 0.00104315
-0.42513 -0.0499924 0.00104121
-0.412607 -0.0499917 0.00103877
-0.400084 -0.049991 0.00103633
-0.387562 -0.0499904 0.0010339
-0.375039 -0.0499897 0.00103148
-0.362534 -0.0499889 0.00102968
-0.350028 -0.0499881 0.00102804
-0.337522 -0.0499873 0.0010264
-0.325017 -0.0499865 0.00102477
-0.312511 -0.0499856 0.00102314
-0.306259 -0.0499851 0.00102239
-0.300007 -0.0499842 0.00102108
-0.293755 -0.0499832 0.00101977
-0.287503 -0.0499823 0.00101847
-0.281251 -0.0499813 0.00101716
-0.275 -0.0499801 0.00101652
-0.26875 -0.049979 0.00101553
-0.2625 -0.0499778 0.00101453
-0.25625 -0.0499767 0.00101354
-0.25 -0.0499756 0.00101255
-0.24375 -0.049975 0.00101215
-0.2375 -0.0499736 0.00101143
-0.23125 -0.0499722 0.00101071
-0.225 -0.0499708 0.00100999
-0.21875 -0.0499694 0.00100927
-0.2125 -0.0499678 0.00100912
-0.20625 -0.0499662 0.00100875
-0.2 -0.0499645 0.00100837
-0.19375 -0.0499628 0.00100799
-0.1875 -0.0499611 0.00100762
-0.18125 -0.0499604 0.00100784
-0.175 -0.0499584 0.00100792
-0.16875 -0.0499564 0.001008
-0.1625 -0.0499544 0.00100809
-0.15625 -0.0499525 0.00100817
-0.153125 -0.0499513 0.00100834
-0.15 -0.049949 0.00100861
-0.146875 -0.0499468 0.00100888
-0.14375 -0.0499445 0.00100915
-0.140625 -0.0499423 0.00100942
-0.1375 -0.0499403 0.0010097
-0.134374 -0.0499378 0.00101017
-0.131249 -0.0499352 0.00101065
-0.128124 -0.0499326 0.00101112
-0.124999 -0.04993 0.0010116
-0.121874 -0.0499286 0.001012
-0.118749 -0.0499258 0.00101264
-0.115624 -0.0499229 0.00101329
-0.112499 -0.04992 0.00101393
-0.109374 -0.0499172 0.00101458
-0.106249 -0.049915 0.00101511
-0.103124 -0.0499119 0.00101589
-0.0999989 -0.0499088 0.00101666
-0.0968739 -0.0499057 0.00101743
-0.0937488 -0.0499026 0.00101821
-0.0906239 -0.0499009 0.00101884
-0.0874989 -0.0498976 0.00101973
-0.0843739 -0.0498943 0.00102062
-0.0812489 -0.0498909 0.00102151
-0.0781239 -0.0498876 0.0010224
-0.0749989 -0.0498852 0.00102315
-0.0718739 -0.0498816 0.00102415
-0.0687489 -0.0498781 0.00102515
-0.0656238 -0.0498745 0.00102615
-0.0624988 -0.0498709 0.00102716
-0.0593738 -0.0498691 0.00102799
-0.0562488 -0.0498654 0.0010291
-0.0531238 -0.0498616 0.00103021
-0.0499988 -0.0498578 0.00103132
-0.0468738 -0.049854 0.00103243
-0.0437488 -0.0498513 0.00103339
-0.0406238 -0.0498473 0.0010346
-0.0374988 -0.0498433 0.00103582
-0.0343738 -0.0498393 0.00103703
-0.0312488 -0.0498353 0.00103825
-0.0281239 -0.0498333 0.00103929
-0.0249989 -0.049829 0.00104061
-0.0218739 -0.0498248 0.00104192
-0.018749 -0.0498206 0.00104324
-0.015624 -0.0498163 0.00104456
-0.012499 -0.0498134 0.00104572
-0.00937393 -0.0498089 0.00104713
-0.00624889 -0.0498044 0.00104854
-0.00312386 -0.0498 0.00104996
1.18282e-06 -0.0497955 0.00105138
0.00312621 -0.0497933 0.00105261
0.00625124 -0.0497886 0.00105412
0.00937627 -0.0497839 0.00105563
0.0125013 -0.0497792 0.00105714
0.0156263 -0.0497745 0.00105865
0.0187516 -0.0497713 0.00106
0.0218768 -0.0497664 0.00106159
0.025002 -0.0497615 0.00106319
0.0281273 -0.0497566 0.0010648
0.0312525 -0.0497516 0.0010664
0.0343793 -0.0497493 0.00106782
0.037506 -0.0497441 0.00106951
0.0406327 -0.049739 0.0010712
0.0437595 -0.0497338 0.0010729
0.0468862 -0.0497287 0.00107459
0.050011 -0.0497252 0.00107611
0.0531358 -0.0497199 0.00107788
0.0562606 -0.0497145 0.00107966
0.0593853 -0.0497091 0.00108143
0.0625101 -0.0497037 0.00108322
0.065635 -0.0497012 0.0010848
0.0687598 -0.0496956 0.00108666
0.0718846 -0.04969 0.00108851
0.0750094 -0.0496844 0.00109037
0.0781342 -0.0496788 0.00109224
0.0812601 -0.0496751 0.00109391
0.084386 -0.0496693 0.00109585
0.0875119 -0.0496635 0.00109778
0.0906377 -0.0496577 0.00109972
0.0937636 -0.0496518 0.00110166
0.0968915 -0.0496491 0.00110341
0.100019 -0.0496431 0.00110541
0.103147 -0.0496371 0.00110742
0.106275 -0.049631 0.00110944
0.109403 -0.049625 0.00111146
0.112529 -0.049621 0.00111328
0.115655 -0.0496148 0.00111535
0.118781 -0.0496086 0.00111743
0.121907 -0.0496023 0.00111952
0.125032 -0.049596 0.0011216
0.128157 -0.0495932 0.00112348
0.131283 -0.0495867 0.00112562
0.134408 -0.0495803 0.00112776
0.137533 -0.0495738 0.00112991
0.140658 -0.0495673 0.00113206
0.143784 -0.0495632 0.001134
0.146909 -0.0495565 0.0011362
0.150035 -0.0495499 0.00113841
0.153161 -0.0495432 0.00114062
0.156287 -0.0495365 0.00114283
0.159413 -0.0495335 0.00114483
0.16254 -0.0495266 0.00114709
0.165667 -0.0495197 0.00114935
0.168794 -0.0495129 0.00115162
0.171921 -0.049506 0.00115389
0.175047 -0.0495015 0.00115593
0.178172 -0.0494945 0.00115824
0.181298 -0.0494874 0.00116056
0.184424 -0.0494803 0.00116288
0.18755 -0.0494732 0.0011652
0.190674 -0.04947 0.00116729
0.193799 -0.0494628 0.00116965
0.196923 -0.0494556 0.00117201
0.200048 -0.0494483 0.00117438
0.203172 -0.049441 0.00117675
0.206296 -0.0494364 0.00117887
0.209421 -0.0494289 0.00118127
0.212545 -0.0494215 0.00118367
0.215669 -0.0494141 0.00118608
0.218794 -0.0494066 0.00118849
0.221919 -0.0494032 0.00119066
0.225045 -0.0493956 0.0011931
0.22817 -0.049388 0.00119554
0.231296 -0.0493804 0.00119799
0.234421 -0.0493728 0.00120044
0.237548 -0.0493679 0.00120263
0.240674 -0.0493601 0.0012051
0.2438 -0.0493524 0.00120758
0.246927 -0.0493446 0.00121006
0.250053 -0.0493367 0.00121255
0.25318 -0.0493332 0.00121478
0.256307 -0.0493253 0.00121728
0.259434 -0.0493173 0.00121979
0.262561 -0.0493094 0.0012223
0.265688 -0.0493014 0.00122481
0.268813 -0.0492963 0.00122706
0.271938 -0.0492883 0.00122958
0.275062 -0.0492802 0.00123212
0.278187 -0.049272 0.00123465
0.281312 -0.0492639 0.00123719
0.284435 -0.0492603 0.00123947
0.287558 -0.049252 0.00124201
0.290681 -0.0492438 0.00124456
0.293804 -0.0492355 0.00124711
0.296927 -0.0492273 0.00124967
0.30005 -0.0492221 0.00125195
0.303174 -0.0492137 0.0012545
0.306297 -0.0492053 0.00125707
0.309421 -0.0491969 0.00125964
0.312544 -0.0491885 0.00126221
0.315668 -0.0491848 0.00126451
0.318793 -0.0491763 0.00126708
0.321917 -0.0491678 0.00126965
0.325041 -0.0491593 0.00127224
0.328166 -0.0491508 0.00127482
0.331291 -0.0491454 0.00127712
0.334416 -0.0491368 0.0012797
0.337541 -0.0491282 0.00128228
0.340666 -0.0491195 0.00128487
0.343791 -0.0491109 0.00128746
0.346916 -0.049107 0.00128978
0.350042 -0.0490983 0.00129237
0.353168 -0.0490896 0.00129496
0.356294 -0.0490808 0.00129755
0.35942 -0.049072 0.00130016
0.362549 -0.0490666 0.00130246
0.365679 -0.0490577 0.00130505
0.368808 -0.0490489 0.00130765
0.371938 -0.04904 0.00131025
0.375068 -0.0490311 0.00131286
0.378205 -0.0490271 0.00131519
0.381343 -0.0490182 0.00131779
0.384481 -0.0490092 0.00132039
0.387619 -0.0490002 0.001323
0.390756 -0.0489912 0.00132561
0.393889 -0.0489856 0.00132791
0.397022 -0.0489766 0.0013305
0.400155 -0.0489675 0.0013331
0.403288 -0.0489585 0.0013357
0.406421 -0.0489494 0.0013383
0.409551 -0.0489454 0.00134062
0.412682 -0.0489363 0.0013432
0.415813 -0.0489272 0.00134579
0.418943 -0.0489181 0.00134838
0.422074 -0.0489089 0.00135098
0.425204 -0.0489032 0.00135326
0.428334 -0.048894 0.00135584
0.431464 -0.0488848 0.00135842
0.434594 -0.0488756 0.001361
0.437724 -0.0488664 0.00136359
0.440854 -0.0488623 0.00136588
0.443984 -0.0488531 0.00136845
0.447114 -0.0488438 0.00137102
0.450244 -0.0488345 0.0013736
0.453374 -0.0488252 0.00137618
0.456504 -0.0488195 0.00137844
0.459634 -0.0488101 0.001381
0.462763 -0.0488008 0.00138355
0.465893 -0.0487915 0.00138612
0.469023 -0.0487821 0.00138869
0.472152 -0.048778 0.00139096
0.475282 -0.0487686 0.0013935
0.478411 -0.0487592 0.00139604
0.481541 -0.0487498 0.00139859
0.48467 -0.0487404 0.00140115
0.4878 -0.0487346 0.00140338
0.490929 -0.0487252 0.0014059
0.494058 -0.0487157 0.00140843
0.497187 -0.0487063 0.00141097
0.500317 -0.0486968 0.00141351
0.503446 -0.0486927 0.00141574
0.506575 -0.0486832 0.00141825
0.509704 -0.0486737 0.00142076
0.512833 -0.0486642 0.00142328
0.515962 -0.0486547 0.0014258
0.519091 -0.0486488 0.00142799
0.52222 -0.0486393 0.00143048
0.525348 -0.0486298 0.00143297
0.528477 -0.0486203 0.00143547
0.531606 -0.0486107 0.00143797
0.534734 -0.0486066 0.00144016
0.537863 -0.048597 0.00144263
0.540992 -0.0485875 0.0014451
0.54412 -0.0485779 0.00144757
0.547249 -0.0485684 0.00145005
0.550377 -0.0485624 0.00145221
0.553506 -0.0485529 0.00145465
0.556634 -0.0485433 0.0014571
0.559762 -0.0485337 0.00145955
0.562891 -0.0485242 0.001462
0.566019 -0.0485199 0.00146416
0.569147 -0.0485104 0.00146657
0.572275 -0.0485008 0.001469
0.575403 -0.0484912 0.00147143
0.578532 -0.0484816 0.00147386
0.58166 -0.0484756 0.00147597
0.584788 -0.0484661 0.00147836
0.587915 -0.0484565 0.00148076
0.591043 -0.0484469 0.00148316
0.594171 -0.0484373 0.00148557
0.597299 -0.0484331 0.00148768
0.600427 -0.0484235 0.00149006
0.603555 -0.0484139 0.00149244
0.606683 -0.0484043 0.00149483
[...]
POINT_DATA 15224
 FIELD attributes 1
U 3 15224 float
25.0027 	2.01734e-05 	-0.000701252 25.0025 	1.96641e-05 	-0.000708163 25.0023 	1.91548e-05 	-0.000715074 25.0022 	1.86456e-05 	-0.000721984 25.002 	1.81363e-05 	-0.000728895 25.0019 	1.7627e-05 	-0.000735806 25.0046 	5.2822e-05 	-0.00100976 25.0046 	5.27735e-05 	-0.00100883 25.0046 	5.2725e-05 	-0.00100791 25.0046 	5.26766e-05 	-0.00100698 25.0028 	-3.3169e-06 	-0.00112264 25.0075 	0.000157743 	-0.00148317 25.0075 	0.000157529 	-0.00148116 25.0074 	0.000157315 	-0.00147916 25.0074 	0.000157102 	-0.00147715 25.0093 	0.000217417 	-0.00186169 25.0184 	0.000369356 	-0.0030653 25.0184 	0.000368835 	-0.00306098 25.0183 	0.000368316 	-0.00305667 25.0183 	0.000367798 	-0.00305237 25.0109 	-3.69188e-05 	-0.00214926 25.0235 	0.000444063 	-0.00337821 25.0235 	0.000443369 	-0.00337293 25.0234 	0.000442676 	-0.00336766 25.0234 	0.000441984 	-0.00336239 25.0135 	0.000401118 	-0.00261131 25.0295 	0.000565988 	-0.00385234 25.0294 	0.000564972 	-0.00384542 25.0294 	0.000563957 	-0.00383851 25.0293 	0.000562944 	-0.00383162 25.0167 	-8.43729e-05 	-0.00312401 25.0367 	0.000747373 	-0.00432338 25.0366 	0.000745853 	-0.00431459 25.0365 	0.000744336 	-0.00430582 25.0364 	0.000742822 	-0.00429706 25.0204 	0.000824785 	-0.0035661 25.0449 	0.000990386 	-0.00462384 25.0448 	0.000988209 	-0.00461368 25.0447 	0.000986038 	-0.00460354 25.0446 	0.000983871 	-0.00459343 25.0251 	-0.000179302 	-0.0038646 25.0552 	0.00132318 	-0.0048875 25.0551 	0.00132008 	-0.00487603 25.0549 	0.00131698 	-0.00486459 25.0548 	0.00131389 	-0.00485318 25.0302 	0.00157859 	-0.0036018 25.0652 	0.00165525 	-0.00328421 25.0651 	0.00165262 	-0.00327898 25.065 	0.00164999 	-0.00327377 25.0649 	0.00164736 	-0.00326856 25.071 	0.00195837 	-0.00302118 25.1404 	0.00382748 	-0.00526084 25.1402 	0.00382258 	-0.0052541 25.14 	0.00381769 	-0.00524738 25.1398 	0.0038128 	-0.00524067 25.0742 	0.00488893 	-0.0025828 25.1505 	0.00459144 	-0.00399311 25.1503 	0.00458696 	-0.00398922 25.1502 	0.00458248 	-0.00398532 25.15 	0.00457801 	-0.00398143 25.0795 	0.00239173 	-0.00164416 25.1587 	0.00559561 	-0.00289456 25.1586 	0.00559164 	-0.00289251 25.1585 	0.00558767 	-0.00289045 25.1584 	0.0055837 	-0.0028884 25.083 	0.00635054 	-0.00059909 25.1659 	0.00675321 	-0.00151419 25.1659 	0.00675069 	-0.00151363 25.1658 	0.00674818 	-0.00151306 25.1657 	0.00674566 	-0.0015125 25.0871 	0.00303519 	0.000896783 25.1707 	0.00797831 	0.000325938 25.1707 	0.00797895 	0.000325965 25.1707 	0.00797959 	0.000325991 25.1708 	0.00798024 	0.000326017 25.1736 	0.00929253 	0.00139991 25.3459 	0.0182566 	0.00218568 25.346 	0.0182615 	0.00218627 25.346 	0.0182663 	0.00218685 25.3461 	0.0182712 	0.00218744 25.1748 	0.0157626 	0.0022365 25.3512 	0.0208657 	0.00385334 25.3513 	0.0208755 	0.00385515 25.3515 	0.0208853 	0.00385696 25.3517 	0.0208951 	0.00385878 25.1779 	0.0112872 	0.00321699 25.3548 	0.0232299 	0.00522976 25.355 	0.0232447 	0.00523309 25.3552 	0.0232595 	0.00523642 25.3555 	0.0232743 	0.00523975 25.1785 	0.0176985 	0.00432461 25.3573 	0.025176 	0.00626657 25.3576 	0.0251951 	0.00627133 25.3579 	0.0252143 	0.0062761 25.3581 	0.0252335 	0.00628088 25.1805 	0.0129477 	0.00506778 25.3584 	0.0270394 	0.00721857 25.3587 	0.027063 	0.00722488 25.359 	0.0270866 	0.00723118 25.3593 	0.0271102 	0.0072375 25.1799 	0.0195845 	0.00608199 25.3585 	0.0288419 	0.00810646 25.3589 	0.0288701 	0.00811437 25.3592 	0.0288983 	0.0081223 25.3596 	0.0289265 	0.00813023 25.1809 	0.0144129 	0.00676284 25.3582 	0.0306862 	0.00898789 25.3586 	0.0307193 	0.00899757 25.359 	0.0307524 	0.00900726 25.3594 	0.0307855 	0.00901697 25.18 	0.021576 	0.007736 25.3571 	0.0325299 	0.00983994 25.3575 	0.0325681 	0.00985148 25.3579 	0.0326063 	0.00986305 25.3584 	0.0326445 	0.00987462 25.1801 	0.015898 	0.00840226 25.3551 	0.0343752 	0.0106611 25.3556 	0.0344187 	0.0106746 25.356 	0.0344622 	0.0106881 25.3565 	0.0345058 	0.0107016 25.1784 	0.0236147 	0.00931827 25.3523 	0.0362295 	0.0114544 25.3528 	0.0362784 	0.0114699 25.3532 	0.0363274 	0.0114854 25.3537 	0.0363764 	0.0115009 25.1777 	0.017383 	0.00996815 25.3486 	0.038036 	0.012223 25.3491 	0.0380904 	0.0122405 25.3496 	0.038145 	0.0122581 25.3501 	0.0381996 	0.0122756 25.175 	0.0256461 	0.0108127 25.344 	0.0398532 	0.0129627 25.3445 	0.0399133 	0.0129822 25.3451 	0.0399735 	0.0130018 25.3456 	0.0400338 	0.0130214 25.1735 	0.0188577 	0.0114443 25.3389 	0.0416717 	0.01368 25.3395 	0.0417376 	0.0137016 25.34 	0.0418035 	0.0137232 25.3405 	0.0418696 	0.0137449 25.1702 	0.027697 	0.0122103 25.3332 	0.0434636 	0.0143689 25.3337 	0.0435352 	0.0143926 25.3343 	0.0436069 	0.0144163 25.3348 	0.0436787 	0.0144401 25.1677 	0.0202945 	0.0127937 25.3266 	0.0452534 	0.0150253 25.3272 	0.0453308 	0.015051 25.3278 	0.0454082 	0.0150767 25.3283 	0.0454858 	0.0151025 25.1641 	0.029739 	0.0134836 25.3196 	0.0470304 	0.0156521 25.3201 	0.0471135 	0.0156797 25.3207 	0.0471967 	0.0157074 25.3213 	0.0472801 	0.0157352 25.1609 	0.0217293 	0.0140166 25.312 	0.0487594 	0.0162507 25.3126 	0.0488482 	0.0162803 25.3132 	0.0489371 	0.01631 25.3138 	0.0490261 	0.0163396 25.1567 	0.0317286 	0.0146181 25.3039 	0.0504534 	0.0168071 25.3045 	0.0505475 	0.0168384 25.305 	0.0506418 	0.0168698 25.3056 	0.0507362 	0.0169013 25.1528 	0.0231093 	0.015097 25.2951 	0.0521184 	0.017323 25.2957 	0.0522177 	0.017356 25.2962 	0.0523171 	0.0173891 25.2968 	0.0524168 	0.0174222 25.1482 	0.033635 	0.0155951 25.286 	0.0537635 	0.0178081 25.2866 	0.0538679 	0.0178427 25.2871 	0.0539725 	0.0178773 25.2877 	0.0540772 	0.017912 25.1438 	0.0244577 	0.0160295 25.2767 	0.0554128 	0.0182622 25.2772 	0.0555222 	0.0182982 25.2778 	0.0556317 	0.0183343 25.2783 	0.0557415 	0.0183705 25.139 	0.035536 	0.0164311 25.267 	0.0570065 	0.0186775 25.2675 	0.0571205 	0.0187149 25.268 	0.0572346 	0.0187523 25.2686 	0.057349 	0.0187898 25.1341 	0.0257701 	0.0168145 25.2568 	0.0585123 	0.0190497 25.2573 	0.0586305 	0.0190882 25.2578 	0.0587488 	0.0191267 25.2583 	0.0588674 	0.0191653 25.1288 	0.0372758 	0.017108 25.2462 	0.0599519 	0.0193748 25.2467 	0.0600739 	0.0194142 25.2472 	0.0601961 	0.0194537 25.2477 	0.0603185 	0.0194933 25.1236 	0.0269482 	0.0174336 25.2356 	0.0613511 	0.0196705 25.2361 	0.0614766 	0.0197107 25.2366 	0.0616024 	0.0197511 25.2371 	0.0617284 	0.0197915 25.1182 	0.0388922 	0.0176339 25.225 	0.0627101 	0.0199347 25.2254 	0.062839 	0.0199756 25.2259 	0.0629681 	0.0200167 25.2263 	0.0630974 	0.0200578 25.1129 	0.0280819 	0.0179146 25.2143 	0.0640245 	0.0201723 25.2148 	0.0641563 	0.0202138 25.2152 	0.0642884 	0.0202554 25.2157 	0.0644208 	0.0202971 25.1075 	0.0404425 	0.0180368 25.2034 	0.0652464 	0.0203706 25.2038 	0.0653807 	0.0204125 25.2043 	0.0655153 	0.0204545 25.2047 	0.0656502 	0.0204967 25.102 	0.0291169 	0.0182782 25.1922 	0.0663533 	0.0205147 25.1926 	0.0664894 	0.0205568 25.193 	0.0666259 	0.020599 25.1934 	0.0667626 	0.0206412 25.0963 	0.0417315 	0.0182913 25.1809 	0.0673824 	0.0206206 25.1813 	0.06752 	0.0206627 25.1816 	0.067658 	0.0207049 25.182 	0.0677962 	0.0207472 25.0906 	0.0299576 	0.0184783 25.1698 	0.0683656 	0.0207046 25.1701 	0.0685046 	0.0207466 25.1705 	0.0686438 	0.0207888 25.1708 	0.0687833 	0.0208311 25.0851 	0.0428792 	0.0184258 25.1589 	0.0693078 	0.020766 25.1592 	0.0694478 	0.020808 25.1595 	0.069588 	0.02085 25.1598 	0.0697286 	0.0208921 25.0795 	0.0307491 	0.0185819 25.1481 	0.0702024 	0.0208051 25.1484 	0.0703432 	0.0208468 25.1487 	0.0704842 	0.0208886 25.149 	0.0706255 	0.0209305 25.0743 	0.0439352 	0.018465 25.1376 	0.0710305 	0.020824 25.1379 	0.0711719 	0.0208655 25.1381 	0.0713136 	0.020907 25.1384 	0.0714555 	0.0209486 25.0689 	0.0314614 	0.0185981 25.127 	0.071717 	0.0208082 25.1273 	0.0718587 	0.0208493 25.1275 	0.0720006 	0.0208905 25.1278 	0.0721429 	0.0209318 25.0637 	0.044756 	0.018408 25.1167 	0.0723518 	0.0207629 25.1169 	0.0724929 	0.0208034 25.1172 	0.0726343 	0.0208439 25.1174 	0.0727759 	0.0208846 25.0584 	0.0320016 	0.0185026 25.1067 	0.07299 	0.020714 25.107 	0.0731306 	0.020754 25.1072 	0.0732715 	0.0207939 25.1074 	0.0734126 	0.020834 25.0536 	0.0455281 	0.0182796 25.0971 	0.0735901 	0.0206475 25.0972 	0.0737302 	0.0206868 25.0974 	0.0738705 	0.0207262 25.0976 	0.074011 	0.0207656 25.0486 	0.0325222 	0.0183542 25.0876 	0.0741319 	0.0205707 25.0878 	0.0742712 	0.0206093 25.088 	0.0744107 	0.020648 25.0881 	0.0745505 	0.0206868 25.0441 	0.0462076 	0.0180963 25.0784 	0.0746135 	0.0204722 25.0786 	0.0747518 	0.0205101 25.0787 	0.0748903 	0.0205481 25.0789 	0.0750291 	0.0205862 25.0393 	0.0329445 	0.018145 25.0695 	0.0750391 	0.020353 25.0696 	0.0751761 	0.0203902 25.0698 	0.0753134 	0.0204274 25.0699 	0.075451 	0.0204647 25.035 	0.0467539 	0.0178548 25.0609 	0.0754122 	0.0202223 25.061 	0.0755479 	0.0202587 25.0611 	0.0756838 	0.0202952 25.0612 	0.07582 	0.0203317 25.0305 	0.0332737 	0.0178793 25.0526 	0.0757324 	0.0200719 25.0527 	0.0758665 	0.0201074 25.0527 	0.0760008 	0.020143 25.0528 	0.0761354 	0.0201787 25.0266 	0.047178 	0.0175649 25.0445 	0.0759951 	0.0199098 25.0446 	0.0761274 	0.0199444 25.0447 	0.07626 	0.0199792 25.0448 	0.0763929 	0.020014 25.0223 	0.0335129 	0.0175664 25.0368 	0.0762068 	0.0197339 25.0369 	0.0763372 	0.0197677 25.037 	0.076468 	0.0198015 25.037 	0.0765989 	0.0198354 25.0187 	0.0474727 	0.0172344 25.0295 	0.0763647 	0.0195436 25.0295 	0.0764931 	0.0195764 25.0296 	0.0766218 	0.0196094 25.0296 	0.0767507 	0.0196423 25.0147 	0.0336631 	0.0172184 25.0224 	0.0764716 	0.0193504 25.0225 	0.076598 	0.0193823 25.0225 	0.0767245 	0.0194144 25.0225 	0.0768513 	0.0194464 25.0115 	0.0476464 	0.0168841 25.0157 	0.0765009 	0.0191497 25.0157 	0.076625 	0.0191807 25.0158 	0.0767493 	0.0192119 25.0158 	0.0768738 	0.019243 25.0078 	0.0337118 	0.0168922 25.0096 	0.0765043 	0.0190134 25.0097 	0.0766266 	0.0190438 25.0097 	0.0767491 	0.0190742 25.0097 	0.0768718 	0.0191047 25.0049 	0.0477113 	0.0166042 25.003 	0.0764879 	0.0189133 25.0031 	0.0766085 	0.0189432 25.0031 	0.0767294 	0.0189731 25.0031 	0.0768505 	0.019003 25.0013 	0.0337271 	0.0166448 24.9972 	0.0764815 	0.0188155 24.9972 	0.0766007 	0.0188448 24.9972 	0.07672 	0.0188742 24.9972 	0.0768396 	0.0189036 24.9987 	0.0477079 	0.0163549 24.991 	0.0763914 	0.0186688 24.991 	0.0765086 	0.0186975 24.991 	0.076626 	0.0187262 24.991 	0.0767436 	0.0187549 24.9955 	0.0336904 	0.0163707 24.9858 	0.0762958 	0.0185706 24.9858 	0.0764115 	0.0185987 24.9858 	0.0765272 	0.0186269 24.9857 	0.0766432 	0.0186552 24.9931 	0.0476404 	0.016102 24.9798 	0.0762091 	0.0185023 24.9797 	0.0763234 	0.0185301 24.9797 	0.0764378 	0.0185579 24.9797 	0.0765524 	0.0185857 24.99 	0.0336272 	0.0161057 24.9745 	0.076116 	0.018346 24.9745 	0.0762284 	0.0183731 24.9745 	0.0763409 	0.0184002 24.9744 	0.0764535 	0.0184274 24.988 	0.0475442 	0.0157929 24.9697 	0.075966 	0.0181148 24.9696 	0.0760759 	0.018141 24.9696 	0.076186 	0.0181673 24.9695 	0.0762963 	0.0181936 24.9851 	0.0335187 	0.0157133 24.9651 	0.075776 	0.0178789 24.965 	0.0758835 	0.0179042 24.965 	0.0759911 	0.0179296 24.965 	0.0759636 	0.0179482 24.9834 	0.0472296 	0.0154022 24.961 	0.0749734 	0.017624 24.9611 	0.0748108 	0.0176333 24.9612 	0.0746488 	0.0176427 24.9613 	0.0744873 	0.0176521 24.9808 	0.0333602 	0.0153361 24.9577 	0.0735671 	0.0173608 24.9578 	0.0734101 	0.0173715 24.9579 	0.0732536 	0.0173823 24.958 	0.0730976 	0.0173931 24.9793 	0.046213 	0.015058 24.9547 	0.0721143 	0.0170843 24.9548 	0.0719591 	0.017093 24.9549 	0.0718045 	0.0171018 24.9549 	0.0716504 	0.0171106 24.977 	0.0331703 	0.0149882 24.9522 	0.0707697 	0.0168573 24.9523 	0.0706201 	0.0168674 24.9524 	0.070471 	0.0168775 24.9524 	0.0703225 	0.0168876 24.9758 	0.0452061 	0.0147407 24.9496 	0.0693518 	0.0165869 24.9497 	0.0692042 	0.0165951 24.9498 	0.0690571 	0.0166034 24.9499 	0.0689105 	0.0166117 24.9737 	0.0329595 	0.0146656 24.9477 	0.0680802 	0.0163882 24.9478 	0.067938 	0.0163976 24.9479 	0.0677962 	0.0164071 24.948 	0.067655 	0.0164166 24.9726 	0.0442186 	0.0144452 24.9457 	0.0666812 	0.016126 24.9458 	0.066541 	0.0161339 24.9459 	0.0664013 	0.0161417 24.9459 	0.066262 	0.0161496 24.9708 	0.0327221 	0.0143663 24.9443 	0.0654222 	0.0159511 24.9444 	0.0652448 	0.015958 24.9446 	0.065068 	0.0159649 24.9447 	0.0648917 	0.0159718 24.9699 	0.0431589 	0.0141697 24.9428 	0.0638793 	0.0156806 24.943 	0.0637058 	0.0156859 24.9431 	0.0635329 	0.0156913 24.9432 	0.0633605 	0.0156966 24.9683 	0.0324682 	0.0140818 24.942 	0.0625571 	0.0155232 24.9421 	0.062391 	0.0155298 24.9423 	0.0622255 	0.0155365 24.9424 	0.0620605 	0.0155432 24.9675 	0.0420821 	0.0139073 24.9409 	0.0610839 	0.0152557 24.9411 	0.0609215 	0.0152609 24.9412 	0.0607596 	0.0152662 24.9413 	0.0605982 	0.0152715 24.9661 	0.0322105 	0.0138112 24.9405 	0.0598542 	0.0151214 24.9406 	0.0596957 	0.0151277 24.9407 	0.0595376 	0.015134 24.9409 	0.05938 	0.0151403 24.9655 	0.0410562 	0.0136575 24.9397 	0.0584334 	0.0148517 24.9399 	0.0582814 	0.0148568 24.94 	0.0581299 	0.014862 24.9401 	0.0579789 	0.0148672 24.9643 	0.0319534 	0.0135486 24.9396 	0.0572708 	0.014745 24.9397 	0.0571162 	0.0147508 24.9399 	0.0569621 	0.0147565 24.94 	0.0568084 	0.0147623 24.9638 	0.0400929 	0.0133996 24.9393 	0.055868 	0.0144022 24.9395 	0.0556607 	0.0144044 24.9397 	0.0554539 	0.0144066 24.9399 	0.0552477 	0.0144089 24.9628 	0.0317322 	0.0132832 24.9398 	0.054355 	0.0145559 24.9401 	0.0540915 	0.0145533 24.9403 	0.0538287 	0.0145507 24.9406 	0.0535667 	0.0145482 24.9624 	0.0389424 	0.013119 24.9403 	0.0528346 	0.0130562 24.9408 	0.0523505 	0.013066 24.9413 	0.0518678 	0.0130758 24.9417 	0.0513864 	0.0130857 24.9617 	0.0315947 	0.0130073 24.9613 	0.0312007 	0.0127376 24.9613 	0.0312574 	0.0127608 24.9612 	0.0313142 	0.012784 24.9611 	0.0313712 	0.0128072 24.9836 	0.0240288 	0.0133568 24.9605 	0.0311452 	0.0123103 24.9604 	0.0311993 	0.0123317 24.9604 	0.0312536 	0.0123531 24.9603 	0.0313079 	0.0123745 24.9828 	0.00995672 	0.0129626 24.9599 	0.0305557 	0.0125178 24.9599 	0.0306093 	0.0125397 24.9598 	0.0306629 	0.0125617 24.9597 	0.0307166 	0.0125837 24.9828 	0.0238296 	0.0128214 24.959 	0.0321644 	0.00979478 24.9589 	0.0322081 	0.0098081 24.9589 	0.0322519 	0.00982144 24.9588 	0.0322958 	0.0098348 24.9822 	0.00988359 	0.0124424 24.9818 	0.0096341 	0.0120805 24.9818 	0.0096661 	0.0121206 24.9817 	0.00969822 	0.0121609 24.9816 	0.00973044 	0.0122013 24.9928 	-0.00214988 	0.0137044 24.9813 	0.0094783 	0.01182 24.9812 	0.00950858 	0.0118578 24.9811 	0.00953897 	0.0118956 24.9811 	0.00956944 	0.0119337 24.9927 	0.0124924 	0.0133443 24.981 	0.00936728 	0.0116562 24.9809 	0.00939632 	0.0116923 24.9808 	0.00942544 	0.0117286 24.9808 	0.00945465 	0.0117649 24.9924 	-0.00209809 	0.013273 24.9809 	0.00911191 	0.0112306 24.9809 	0.00913869 	0.0112636 24.9808 	0.00916555 	0.0112967 24.9808 	0.00919249 	0.0113299 24.9925 	0.0124142 	0.0129971 24.9813 	0.00961353 	0.0115241 24.9812 	0.00964209 	0.0115583 24.9812 	0.00967073 	0.0115927 24.9811 	0.00969946 	0.0116271 24.9925 	-0.00209457 	0.0129004 24.9816 	0.00697876 	0.00904278 24.9816 	0.00699478 	0.00906355 24.9815 	0.00701085 	0.00908436 24.9815 	0.00702694 	0.00910522 24.9927 	0.012472 	0.0127423 24.9928 	0.0124068 	0.0125553 24.9927 	0.0124846 	0.0126342 24.9927 	0.012563 	0.0127135 24.9927 	0.0126419 	0.0127933 24.9968 	-0.0011557 	0.0138597 24.9926 	0.0122898 	0.0122198 24.9926 	0.0123625 	0.0122921 24.9926 	0.0124356 	0.0123648 24.9925 	0.0125092 	0.0124379 24.997 	0.014734 	0.012679 24.9932 	0.013018 	0.0126687 24.9931 	0.0130955 	0.0127442 24.9931 	0.0131736 	0.0128201 24.993 	0.0132521 	0.0128965 24.9972 	-0.00118794 	0.0136442 24.9944 	0.0103551 	0.0105949 24.9944 	0.0104052 	0.0106462 24.9944 	0.0104555 	0.0106976 24.9944 	0.010506 	0.0107494 24.9976 	0.0155549 	0.0126892 24.9982 	0.0164723 	0.0125696 24.9981 	0.0166556 	0.0127095 24.9981 	0.0168409 	0.0128509 24.9981 	0.0170283 	0.0129939 24.9983 	-0.000847958 	0.0151108 24.9976 	0.0175863 	0.0124808 24.9976 	0.0177699 	0.0126111 24.9976 	0.0179554 	0.0127427 24.9976 	0.0181428 	0.0128757 24.998 	0.018975 	0.00965753 24.9975 	0.0186126 	0.0117945 24.9975 	0.0187874 	0.0119053 24.9975 	0.0189638 	0.0120171 24.9975 	0.0191419 	0.0121299 24.9981 	-0.000951253 	0.0146495 24.999 	0.0160885 	0.00933694 24.999 	0.0162024 	0.00940305 24.999 	0.0163171 	0.00946963 24.999 	0.0164327 	0.00953668 24.9987 	0.0192878 	0.00932872 24.9994 	0.0195802 	0.00897608 24.9993 	0.0198359 	0.00909327 24.9993 	0.0200948 	0.00921198 24.9993 	0.0203572 	0.00933225 24.995 	-0.000184917 	0.00922065 24.9989 	0.0206465 	0.00863901 24.9989 	0.0208897 	0.00874078 24.9989 	0.0211358 	0.00884374 24.9989 	0.0213847 	0.00894792 24.9975 	0.00766962 	0.00247233 24.9984 	0.0212021 	0.00842918 24.9984 	0.0214339 	0.00852134 24.9984 	0.0216682 	0.0086145 24.9984 	0.0219051 	0.00870868 24.9952 	-0.000258878 	0.00930673 24.9984 	0.0220135 	0.0094442 24.9984 	0.0222687 	0.0095537 24.9984 	0.0225269 	0.00966446 24.9984 	0.0227881 	0.00977651 24.9973 	0.00788747 	0.00289556 24.9972 	0.00764917 	0.00312692 24.9971 	0.00770488 	0.00314969 24.9971 	0.00776099 	0.00317263 24.9971 	0.00781751 	0.00319573 24.9986 	-8.49752e-06 	0.00185789 24.9973 	0.00717277 	0.0034871 24.9973 	0.00722912 	0.0035145 24.9973 	0.00728591 	0.00354211 24.9973 	0.00734314 	0.00356993 24.9986 	-1.37557e-05 	0.00198151 24.9974 	0.00702439 	0.00364128 24.9974 	0.00708 	0.0036701 24.9974 	0.00713604 	0.00369916 24.9973 	0.00719253 	0.00372844 24.9986 	-1.58905e-05 	0.00203835 24.9974 	0.00697766 	0.00372318 24.9974 	0.00703215 	0.00375226 24.9974 	0.00708707 	0.00378156 24.9973 	0.00714242 	0.00381109 24.9985 	-1.7465e-05 	0.0020799 24.9974 	0.00695883 	0.00377713 24.9974 	0.00701205 	0.00380601 24.9973 	0.00706567 	0.00383512 24.9973 	0.00711971 	0.00386445 24.9985 	-1.89134e-05 	0.00211607 24.9974 	0.00695624 	0.00381228 24.9973 	0.00700811 	0.0038407 24.9973 	0.00706036 	0.00386934 24.9973 	0.007113 	0.00389819 24.9985 	-2.00861e-05 	0.00214773 24.9974 	0.00696566 	0.00383294 24.9973 	0.00701614 	0.00386071 24.9973 	0.00706699 	0.00388869 24.9973 	0.00711821 	0.00391688 24.9984 	-2.09955e-05 	0.0021756 24.9973 	0.00698257 	0.00384269 24.9973 	0.00703166 	0.00386971 24.9973 	0.0070811 	0.00389691 24.9973 	0.00713089 	0.00392431 24.9984 	-2.18186e-05 	0.00220117 24.9973 	0.00700596 	0.00384874 24.9973 	0.00705374 	0.00387499 24.9973 	0.00710185 	0.00390142 24.9972 	0.00715029 	0.00392803 24.9984 	-2.25369e-05 	0.00221909 24.9698 	0.00549975 	0.0421668 24.9415 	0.00444822 	0.0816617 24.913 	0.00387765 	0.121353 24.8844 	0.00379151 	0.161241 24.8604 	0.00291256 	0.191113