# Force coefficients
# liftDir     : (0.000000e+00 0.000000e+00 1.000000e+00)
# dragDir     : (1.000000e+00 0.000000e+00 0.000000e+00)
# pitchAxis   : (0.000000e+00 1.000000e+00 0.000000e+00)
# magUInf     : 2.000000e+01
# lRef        : 1.420000e+00
# Aref        : 7.500000e-01
# CofR        : (7.200000e-01 0.000000e+00 0.000000e+00)
# Time        	Cm            	Cd            	Cl            	Cl(f)         	Cl(r)         
0             	9.235044e-03	2.297424e-02	7.450744e-04	9.607581e-03	-8.862506e-03
1             	5.658463e-01	1.333962e+00	-3.598316e-02	5.478548e-01	-5.838379e-01
2             	6.525668e-01	1.531743e+00	-5.124065e-02	6.269464e-01	-6.781871e-01
3             	5.759797e-01	1.348194e+00	-3.793535e-02	5.570120e-01	-5.949474e-01
4             	4.679200e-01	1.097465e+00	-2.758947e-02	4.541253e-01	-4.817147e-01
5             	3.798288e-01	8.957701e-01	-2.037848e-02	3.696395e-01	-3.900180e-01
6             	3.128791e-01	7.436080e-01	-8.833280e-03	3.084624e-01	-3.172957e-01
7             	2.652432e-01	6.356826e-01	1.599617e-03	2.660430e-01	-2.644434e-01
8             	2.323434e-01	5.628505e-01	7.780452e-03	2.362337e-01	-2.284532e-01
9             	2.107977e-01	5.162729e-01	1.170022e-02	2.166478e-01	-2.049476e-01
10            	1.962250e-01	4.862383e-01	1.474317e-02	2.035966e-01	-1.888534e-01
11            	1.866620e-01	4.665967e-01	1.825517e-02	1.957895e-01	-1.775344e-01
12            	1.807596e-01	4.535089e-01	2.306814e-02	1.922936e-01	-1.692255e-01
13            	1.777172e-01	4.452691e-01	2.847837e-02	1.919564e-01	-1.634780e-01
14            	1.771602e-01	4.412406e-01	3.450856e-02	1.944145e-01	-1.599060e-01
15            	1.777065e-01	4.386338e-01	4.040093e-02	1.979070e-01	-1.575061e-01
16            	1.780277e-01	4.356412e-01	4.616453e-02	2.011099e-01	-1.549454e-01
17            	1.782584e-01	4.331217e-01	5.053845e-02	2.035277e-01	-1.529892e-01
18            	1.786608e-01	4.316433e-01	5.277427e-02	2.050480e-01	-1.522737e-01
19            	1.790358e-01	4.304092e-01	5.333577e-02	2.057037e-01	-1.523679e-01
20            	1.793729e-01	4.295237e-01	5.232945e-02	2.055376e-01	-1.532082e-01
21            	1.797676e-01	4.293210e-01	5.028852e-02	2.049119e-01	-1.546234e-01
22            	1.795202e-01	4.290263e-01	4.842888e-02	2.037346e-01	-1.553057e-01
23            	1.781609e-01	4.279584e-01	4.764674e-02	2.019843e-01	-1.543376e-01
24            	1.758102e-01	4.260016e-01	4.828256e-02	1.999514e-01	-1.516689e-01
25            	1.730115e-01	4.235922e-01	4.990219e-02	1.979626e-01	-1.480604e-01
26            	1.704785e-01	4.216250e-01	5.174848e-02	1.963527e-01	-1.446042e-01
27            	1.684835e-01	4.202831e-01	5.349534e-02	1.952312e-01	-1.417359e-01
28            	1.670186e-01	4.193349e-01	5.497565e-02	1.945065e-01	-1.395308e-01
29            	1.659580e-01	4.185721e-01	5.626792e-02	1.940920e-01	-1.378241e-01
30            	1.651594e-01	4.176505e-01	5.763286e-02	1.939758e-01	-1.363430e-01
31            	1.645669e-01	4.167146e-01	5.900664e-02	1.940702e-01	-1.350636e-01
32            	1.642045e-01	4.158372e-01	6.032880e-02	1.943689e-01	-1.340401e-01
33            	1.640488e-01	4.151861e-01	6.126074e-02	1.946792e-01	-1.334185e-01
34            	1.639522e-01	4.146085e-01	6.195420e-02	1.949293e-01	-1.329751e-01
35            	1.637458e-01	4.140312e-01	6.250478e-02	1.949982e-01	-1.324934e-01
36            	1.634294e-01	4.134141e-01	6.302245e-02	1.949407e-01	-1.319182e-01
37            	1.630224e-01	4.127070e-01	6.342858e-02	1.947367e-01	-1.313081e-01
38            	1.626670e-01	4.120067e-01	6.348012e-02	1.944071e-01	-1.309269e-01
39            	1.625296e-01	4.114112e-01	6.310640e-02	1.940828e-01	-1.309764e-01
40            	1.625517e-01	4.108684e-01	6.266581e-02	1.938846e-01	-1.312188e-01
41            	1.627046e-01	4.105053e-01	6.215197e-02	1.937806e-01	-1.316286e-01
42            	1.627367e-01	4.100592e-01	6.206502e-02	1.937692e-01	-1.317042e-01
43            	1.627140e-01	4.097303e-01	6.227150e-02	1.938498e-01	-1.315783e-01
44            	1.625469e-01	4.094014e-01	6.285270e-02	1.939733e-01	-1.311206e-01
45            	1.622186e-01	4.091416e-01	6.361070e-02	1.940240e-01	-1.304133e-01
46            	1.617272e-01	4.088548e-01	6.461321e-02	1.940338e-01	-1.294206e-01
47            	1.611732e-01	4.086780e-01	6.574829e-02	1.940474e-01	-1.282991e-01
48            	1.606624e-01	4.086760e-01	6.685910e-02	1.940920e-01	-1.272329e-01
49            	1.602075e-01	4.088696e-01	6.776657e-02	1.940908e-01	-1.263243e-01
50            	1.597400e-01	4.091604e-01	6.849641e-02	1.939882e-01	-1.254918e-01
51            	1.592701e-01	4.096063e-01	6.898202e-02	1.937611e-01	-1.247791e-01
52            	1.587923e-01	4.102039e-01	6.935745e-02	1.934710e-01	-1.241136e-01
53            	1.583579e-01	4.108636e-01	6.959343e-02	1.931546e-01	-1.235612e-01
54            	1.579728e-01	4.115415e-01	6.970848e-02	1.928270e-01	-1.231185e-01
55            	1.576766e-01	4.122148e-01	6.969807e-02	1.925257e-01	-1.228276e-01
56            	1.574651e-01	4.128433e-01	6.960069e-02	1.922654e-01	-1.226648e-01
57            	1.573699e-01	4.134462e-01	6.939856e-02	1.920692e-01	-1.226707e-01
58            	1.573361e-01	4.139860e-01	6.905949e-02	1.918658e-01	-1.228063e-01
59            	1.574148e-01	4.145064e-01	6.860033e-02	1.917150e-01	-1.231146e-01
60            	1.574966e-01	4.148722e-01	6.798959e-02	1.914914e-01	-1.235018e-01
61            	1.576540e-01	4.152440e-01	6.733236e-02	1.913202e-01	-1.239878e-01
62            	1.577758e-01	4.155525e-01	6.659702e-02	1.910743e-01	-1.244773e-01
63            	1.579841e-01	4.159890e-01	6.595960e-02	1.909639e-01	-1.250043e-01
64            	1.581475e-01	4.163852e-01	6.531054e-02	1.908028e-01	-1.254922e-01
65            	1.583369e-01	4.168208e-01	6.480429e-02	1.907391e-01	-1.259348e-01
66            	1.584438e-01	4.171400e-01	6.432680e-02	1.906072e-01	-1.262804e-01
67            	1.585375e-01	4.174238e-01	6.400264e-02	1.905388e-01	-1.265362e-01
68            	1.585137e-01	4.175250e-01	6.374523e-02	1.903863e-01	-1.266411e-01
69            	1.585147e-01	4.176312e-01	6.362877e-02	1.903291e-01	-1.267003e-01
70            	1.584384e-01	4.175802e-01	6.357220e-02	1.902245e-01	-1.266523e-01
71            	1.583765e-01	4.174644e-01	6.366993e-02	1.902114e-01	-1.265415e-01
72            	1.582423e-01	4.172054e-01	6.374491e-02	1.901148e-01	-1.263699e-01
73            	1.581545e-01	4.169760e-01	6.385151e-02	1.900803e-01	-1.262288e-01
74            	1.580157e-01	4.166864e-01	6.383465e-02	1.899331e-01	-1.260984e-01
75            	1.579478e-01	4.164870e-01	6.382006e-02	1.898578e-01	-1.260377e-01
76            	1.578572e-01	4.162949e-01	6.373419e-02	1.897242e-01	-1.259901e-01
77            	1.578441e-01	4.162357e-01	6.362076e-02	1.896545e-01	-1.260337e-01
78            	1.578301e-01	4.162089e-01	6.350719e-02	1.895837e-01	-1.260765e-01
79            	1.578662e-01	4.162902e-01	6.340108e-02	1.895667e-01	-1.261657e-01
80            	1.578392e-01	4.163185e-01	6.326971e-02	1.894741e-01	-1.262044e-01
81            	1.578411e-01	4.163725e-01	6.314071e-02	1.894115e-01	-1.262708e-01
82            	1.576907e-01	4.162461e-01	6.289540e-02	1.891384e-01	-1.262430e-01
83            	1.575418e-01	4.160057e-01	6.274988e-02	1.889167e-01	-1.261668e-01
84            	1.572882e-01	4.155927e-01	6.256254e-02	1.885694e-01	-1.260069e-01
85            	1.570376e-01	4.150952e-01	6.251858e-02	1.882969e-01	-1.257783e-01
86            	1.567551e-01	4.145229e-01	6.252504e-02	1.880176e-01	-1.254926e-01
87            	1.565833e-01	4.140620e-01	6.266180e-02	1.879142e-01	-1.252524e-01
88            	1.564399e-01	4.136654e-01	6.282494e-02	1.878524e-01	-1.250274e-01
89            	1.564188e-01	4.134846e-01	6.296029e-02	1.878990e-01	-1.249387e-01
90            	1.564091e-01	4.133663e-01	6.303695e-02	1.879276e-01	-1.248906e-01
91            	1.564696e-01	4.133643e-01	6.307301e-02	1.880061e-01	-1.249331e-01
92            	1.565091e-01	4.133702e-01	6.304559e-02	1.880319e-01	-1.249863e-01
93            	1.565245e-01	4.133747e-01	6.294164e-02	1.879954e-01	-1.250537e-01
94            	1.564649e-01	4.133606e-01	6.281251e-02	1.878711e-01	-1.250586e-01
95            	1.563780e-01	4.133948e-01	6.268153e-02	1.877188e-01	-1.250373e-01
96            	1.562166e-01	4.134035e-01	6.263583e-02	1.875345e-01	-1.248987e-01
97            	1.560664e-01	4.134712e-01	6.263457e-02	1.873837e-01	-1.247491e-01
98            	1.559033e-01	4.135648e-01	6.269138e-02	1.872490e-01	-1.245576e-01
99            	1.557813e-01	4.137061e-01	6.277188e-02	1.871673e-01	-1.243954e-01
100           	1.556683e-01	4.138645e-01	6.287244e-02	1.871045e-01	-1.242321e-01
101           	1.555840e-01	4.140469e-01	6.298592e-02	1.870770e-01	-1.240911e-01
102           	1.555282e-01	4.142134e-01	6.313601e-02	1.870962e-01	-1.239602e-01
103           	1.555070e-01	4.143885e-01	6.330449e-02	1.871593e-01	-1.238548e-01
104           	1.555171e-01	4.145672e-01	6.347388e-02	1.872540e-01	-1.237802e-01
105           	1.555928e-01	4.147884e-01	6.361916e-02	1.874024e-01	-1.237832e-01
106           	1.556946e-01	4.150275e-01	6.374317e-02	1.875662e-01	-1.238230e-01
107           	1.558473e-01	4.153044e-01	6.382992e-02	1.877623e-01	-1.239324e-01
108           	1.559892e-01	4.155650e-01	6.388779e-02	1.879331e-01	-1.240453e-01
109           	1.561600e-01	4.158474e-01	6.393630e-02	1.881282e-01	-1.241919e-01
110           	1.562835e-01	4.161109e-01	6.390793e-02	1.882375e-01	-1.243295e-01
111           	1.563856e-01	4.163079e-01	6.388010e-02	1.883257e-01	-1.244456e-01
112           	1.563658e-01	4.163509e-01	6.376946e-02	1.882505e-01	-1.244811e-01
113           	1.564634e-01	4.165535e-01	6.380363e-02	1.883652e-01	-1.245616e-01
114           	1.564117e-01	4.165212e-01	6.377459e-02	1.882990e-01	-1.245244e-01
115           	1.564624e-01	4.166778e-01	6.378638e-02	1.883556e-01	-1.245692e-01
116           	1.564076e-01	4.166362e-01	6.375831e-02	1.882867e-01	-1.245284e-01
117           	1.564776e-01	4.167810e-01	6.376050e-02	1.883579e-01	-1.245974e-01
118           	1.564817e-01	4.168162e-01	6.375058e-02	1.883570e-01	-1.246064e-01
119           	1.565956e-01	4.170405e-01	6.372290e-02	1.884571e-01	-1.247342e-01
120           	1.566693e-01	4.172130e-01	6.364041e-02	1.884895e-01	-1.248491e-01
121           	1.568019e-01	4.175199e-01	6.353784e-02	1.885708e-01	-1.250330e-01
122           	1.569028e-01	4.178268e-01	6.335751e-02	1.885816e-01	-1.252241e-01
123           	1.569619e-01	4.180911e-01	6.317295e-02	1.885484e-01	-1.253754e-01
124           	1.569821e-01	4.183338e-01	6.300089e-02	1.884825e-01	-1.254816e-01
125           	1.569699e-01	4.185437e-01	6.282825e-02	1.883841e-01	-1.255558e-01
126           	1.569150e-01	4.187013e-01	6.271807e-02	1.882740e-01	-1.255559e-01
127           	1.568372e-01	4.188228e-01	6.262838e-02	1.881514e-01	-1.255230e-01
128           	1.567141e-01	4.189083e-01	6.254685e-02	1.879876e-01	-1.254407e-01
129           	1.565839e-01	4.189433e-01	6.251888e-02	1.878433e-01	-1.253245e-01
130           	1.564551e-01	4.189693e-01	6.252500e-02	1.877176e-01	-1.251926e-01
131           	1.563517e-01	4.189636e-01	6.258325e-02	1.876433e-01	-1.250601e-01
132           	1.562815e-01	4.189659e-01	6.269333e-02	1.876282e-01	-1.249348e-01
133           	1.562344e-01	4.189684e-01	6.276494e-02	1.876169e-01	-1.248519e-01
134           	1.562093e-01	4.189809e-01	6.284635e-02	1.876325e-01	-1.247862e-01
135           	1.562058e-01	4.190121e-01	6.286878e-02	1.876402e-01	-1.247714e-01
136           	1.562339e-01	4.190794e-01	6.293262e-02	1.877002e-01	-1.247676e-01
137           	1.562643e-01	4.191469e-01	6.291981e-02	1.877242e-01	-1.248044e-01
138           	1.562677e-01	4.191988e-01	6.294046e-02	1.877379e-01	-1.247974e-01
139           	1.562602e-01	4.192228e-01	6.288717e-02	1.877037e-01	-1.248166e-01
140           	1.562570e-01	4.192636e-01	6.291276e-02	1.877133e-01	-1.248006e-01
141           	1.562180e-01	4.192562e-01	6.282143e-02	1.876287e-01	-1.248072e-01
142           	1.561634e-01	4.192402e-01	6.282635e-02	1.875766e-01	-1.247502e-01
143           	1.560826e-01	4.191553e-01	6.275871e-02	1.874620e-01	-1.247033e-01
144           	1.559950e-01	4.190782e-01	6.279869e-02	1.873943e-01	-1.245957e-01
145           	1.558841e-01	4.189390e-01	6.274893e-02	1.872586e-01	-1.245097e-01
146           	1.558019e-01	4.188280e-01	6.282930e-02	1.872166e-01	-1.243873e-01
147           	1.557086e-01	4.186702e-01	6.282740e-02	1.871223e-01	-1.242949e-01
148           	1.556677e-01	4.185795e-01	6.293123e-02	1.871333e-01	-1.242021e-01
149           	1.556181e-01	4.184642e-01	6.291728e-02	1.870767e-01	-1.241595e-01
150           	1.556125e-01	4.184158e-01	6.300225e-02	1.871136e-01	-1.241114e-01
151           	1.556182e-01	4.183556e-01	6.301642e-02	1.871264e-01	-1.241100e-01
152           	1.556743e-01	4.183868e-01	6.312840e-02	1.872385e-01	-1.241101e-01
153           	1.557017e-01	4.183646e-01	6.315450e-02	1.872790e-01	-1.241245e-01
154           	1.557755e-01	4.184349e-01	6.328498e-02	1.874180e-01	-1.241330e-01
155           	1.558345e-01	4.185038e-01	6.328472e-02	1.874768e-01	-1.241921e-01
156           	1.559026e-01	4.186091e-01	6.338085e-02	1.875930e-01	-1.242122e-01
157           	1.559481e-01	4.186789e-01	6.335184e-02	1.876241e-01	-1.242722e-01
158           	1.560148e-01	4.187874e-01	6.347330e-02	1.877514e-01	-1.242781e-01
159           	1.560513e-01	4.188468e-01	6.347783e-02	1.877902e-01	-1.243124e-01
160           	1.560924e-01	4.189399e-01	6.353807e-02	1.878614e-01	-1.243234e-01
161           	1.560995e-01	4.189793e-01	6.347816e-02	1.878386e-01	-1.243605e-01
162           	1.561308e-01	4.190472e-01	6.353310e-02	1.878973e-01	-1.243642e-01
163           	1.561549e-01	4.190944e-01	6.347532e-02	1.878926e-01	-1.244173e-01
164           	1.561830e-01	4.191586e-01	6.351064e-02	1.879383e-01	-1.244276e-01
165           	1.562132e-01	4.192217e-01	6.345670e-02	1.879416e-01	-1.244849e-01
166           	1.562686e-01	4.193389e-01	6.347462e-02	1.880059e-01	-1.245313e-01
167           	1.562978e-01	4.194122e-01	6.340444e-02	1.880000e-01	-1.245956e-01
168           	1.563591e-01	4.195014e-01	6.345218e-02	1.880852e-01	-1.246330e-01
169           	1.563975e-01	4.195497e-01	6.339190e-02	1.880935e-01	-1.247016e-01
170           	1.564658e-01	4.196107e-01	6.344526e-02	1.881884e-01	-1.247432e-01
171           	1.564896e-01	4.196294e-01	6.334235e-02	1.881608e-01	-1.248184e-01
172           	1.564969e-01	4.195811e-01	6.334488e-02	1.881694e-01	-1.248245e-01
173           	1.564944e-01	4.194825e-01	6.327467e-02	1.881317e-01	-1.248570e-01
174           	1.565076e-01	4.193995e-01	6.334965e-02	1.881825e-01	-1.248328e-01
175           	1.564753e-01	4.192290e-01	6.319421e-02	1.880724e-01	-1.248782e-01
176           	1.564544e-01	4.191229e-01	6.318937e-02	1.880491e-01	-1.248597e-01
177           	1.564008e-01	4.189365e-01	6.304806e-02	1.879248e-01	-1.248768e-01
178           	1.563764e-01	4.187661e-01	6.304992e-02	1.879014e-01	-1.248515e-01
179           	1.563483e-01	4.185985e-01	6.296032e-02	1.878284e-01	-1.248681e-01
180           	1.563257e-01	4.184341e-01	6.297097e-02	1.878112e-01	-1.248402e-01
181           	1.563143e-01	4.183424e-01	6.288777e-02	1.877582e-01	-1.248704e-01
182           	1.563209e-01	4.182358e-01	6.291410e-02	1.877780e-01	-1.248639e-01
183           	1.563221e-01	4.181655e-01	6.277945e-02	1.877119e-01	-1.249324e-01
184           	1.563363e-01	4.181032e-01	6.271192e-02	1.876922e-01	-1.249803e-01
185           	1.563093e-01	4.179899e-01	6.251779e-02	1.875682e-01	-1.250504e-01
186           	1.562594e-01	4.178076e-01	6.240980e-02	1.874643e-01	-1.250545e-01
187           	1.561789e-01	4.175559e-01	6.223413e-02	1.872960e-01	-1.250618e-01
188           	1.561366e-01	4.173772e-01	6.216876e-02	1.872209e-01	-1.250522e-01
189           	1.560847e-01	4.171989e-01	6.200556e-02	1.870874e-01	-1.250819e-01
190           	1.561056e-01	4.171631e-01	6.193633e-02	1.870737e-01	-1.251374e-01
191           	1.561021e-01	4.171126e-01	6.177423e-02	1.869892e-01	-1.252150e-01
192           	1.561483e-01	4.171263e-01	6.175110e-02	1.870239e-01	-1.252728e-01
193           	1.561800e-01	4.171151e-01	6.160836e-02	1.869842e-01	-1.253758e-01
194           	1.562169e-01	4.171004e-01	6.154867e-02	1.869912e-01	-1.254426e-01
195           	1.561974e-01	4.169942e-01	6.137299e-02	1.868839e-01	-1.255109e-01
196           	1.561730e-01	4.168824e-01	6.131944e-02	1.868327e-01	-1.255133e-01
197           	1.560947e-01	4.166763e-01	6.124107e-02	1.867153e-01	-1.254742e-01
198           	1.560420e-01	4.165124e-01	6.130899e-02	1.866965e-01	-1.253876e-01
199           	1.559348e-01	4.162839e-01	6.130593e-02	1.865878e-01	-1.252818e-01
200           	1.558381e-01	4.160816e-01	6.144840e-02	1.865623e-01	-1.251139e-01
201           	1.557362e-01	4.158864e-01	6.151503e-02	1.864937e-01	-1.249787e-01
202           	1.556960e-01	4.158126e-01	6.168281e-02	1.865374e-01	-1.248545e-01
203           	1.556555e-01	4.157726e-01	6.173277e-02	1.865219e-01	-1.247891e-01
204           	1.556947e-01	4.158609e-01	6.185318e-02	1.866213e-01	-1.247681e-01
205           	1.557573e-01	4.159957e-01	6.185437e-02	1.866845e-01	-1.248301e-01
206           	1.559070e-01	4.162606e-01	6.190949e-02	1.868618e-01	-1.249523e-01
207           	1.560459e-01	4.165071e-01	6.184151e-02	1.869667e-01	-1.251251e-01
208           	1.562436e-01	4.168246e-01	6.186171e-02	1.871744e-01	-1.253127e-01
209           	1.564295e-01	4.171048e-01	6.178955e-02	1.873243e-01	-1.255348e-01
210           	1.566433e-01	4.174101e-01	6.184440e-02	1.875654e-01	-1.257211e-01
211           	1.567955e-01	4.176280e-01	6.179963e-02	1.876953e-01	-1.258957e-01
212           	1.569548e-01	4.178521e-01	6.188192e-02	1.878958e-01	-1.260139e-01
213           	1.570641e-01	4.179953e-01	6.187017e-02	1.879992e-01	-1.261290e-01
214           	1.571608e-01	4.181188e-01	6.197793e-02	1.881497e-01	-1.261718e-01
215           	1.572460e-01	4.182465e-01	6.198363e-02	1.882378e-01	-1.262542e-01
216           	1.572940e-01	4.182937e-01	6.212923e-02	1.883586e-01	-1.262293e-01
217           	1.573241e-01	4.183359e-01	6.216681e-02	1.884075e-01	-1.262407e-01
218           	1.573760e-01	4.183784e-01	6.235589e-02	1.885539e-01	-1.261980e-01
219           	1.573615e-01	4.183370e-01	6.237673e-02	1.885498e-01	-1.261731e-01
220           	1.573755e-01	4.183508e-01	6.249644e-02	1.886237e-01	-1.261273e-01
221           	1.573768e-01	4.182987e-01	6.256126e-02	1.886574e-01	-1.260962e-01
222           	1.574250e-01	4.183305e-01	6.271850e-02	1.887843e-01	-1.260658e-01
223           	1.574138e-01	4.182906e-01	6.272360e-02	1.887756e-01	-1.260520e-01
224           	1.574201e-01	4.182937e-01	6.282327e-02	1.888317e-01	-1.260085e-01
225           	1.573718e-01	4.182285e-01	6.277583e-02	1.887597e-01	-1.259839e-01
226           	1.573675e-01	4.182225e-01	6.286896e-02	1.888019e-01	-1.259330e-01
227           	1.573089e-01	4.181621e-01	6.284177e-02	1.887297e-01	-1.258880e-01
228           	1.572848e-01	4.181715e-01	6.295803e-02	1.887638e-01	-1.258058e-01
229           	1.572210e-01	4.181215e-01	6.298401e-02	1.887130e-01	-1.257289e-01
230           	1.571752e-01	4.181354e-01	6.312698e-02	1.887387e-01	-1.256117e-01
231           	1.570684e-01	4.180669e-01	6.314502e-02	1.886409e-01	-1.254959e-01
232           	1.569918e-01	4.180587e-01	6.327941e-02	1.886315e-01	-1.253521e-01
233           	1.568778e-01	4.179992e-01	6.330277e-02	1.885292e-01	-1.252264e-01
234           	1.568032e-01	4.180059e-01	6.340408e-02	1.885053e-01	-1.251012e-01
235           	1.566937e-01	4.179315e-01	6.340574e-02	1.883966e-01	-1.249908e-01
236           	1.566121e-01	4.179153e-01	6.346015e-02	1.883422e-01	-1.248821e-01
237           	1.564936e-01	4.178200e-01	6.338049e-02	1.881839e-01	-1.248034e-01
238           	1.564418e-01	4.178205e-01	6.338850e-02	1.881360e-01	-1.247475e-01
239           	1.563502e-01	4.177508e-01	6.330052e-02	1.880005e-01	-1.246999e-01
240           	1.563275e-01	4.177689e-01	6.334126e-02	1.879981e-01	-1.246569e-01
241           	1.562722e-01	4.177326e-01	6.328050e-02	1.879125e-01	-1.246320e-01
242           	1.562463e-01	4.177591e-01	6.329775e-02	1.878951e-01	-1.245974e-01
243           	1.561699e-01	4.176985e-01	6.320141e-02	1.877706e-01	-1.245692e-01
244           	1.561480e-01	4.176904e-01	6.325445e-02	1.877753e-01	-1.245208e-01
245           	1.561012e-01	4.176189e-01	6.322625e-02	1.877143e-01	-1.244881e-01
246           	1.560936e-01	4.176215e-01	6.328974e-02	1.877385e-01	-1.244488e-01
247           	1.560352e-01	4.175496e-01	6.321635e-02	1.876434e-01	-1.244270e-01
248           	1.560232e-01	4.175294e-01	6.329583e-02	1.876711e-01	-1.243753e-01
249           	1.559745e-01	4.174165e-01	6.329726e-02	1.876231e-01	-1.243259e-01
250           	1.559594e-01	4.173504e-01	6.341698e-02	1.876679e-01	-1.242509e-01
251           	1.558976e-01	4.172132e-01	6.342366e-02	1.876094e-01	-1.241857e-01
252           	1.558855e-01	4.171821e-01	6.348244e-02	1.876267e-01	-1.241443e-01
253           	1.558213e-01	4.170826e-01	6.339735e-02	1.875200e-01	-1.241226e-01
254           	1.558270e-01	4.170815e-01	6.345056e-02	1.875523e-01	-1.241018e-01
255           	1.558181e-01	4.170514e-01	6.340041e-02	1.875184e-01	-1.241179e-01
256           	1.558483e-01	4.171057e-01	6.344398e-02	1.875703e-01	-1.241263e-01
257           	1.558455e-01	4.170844e-01	6.339562e-02	1.875433e-01	-1.241477e-01
258           	1.558811e-01	4.171368e-01	6.341347e-02	1.875878e-01	-1.241744e-01
259           	1.558669e-01	4.170795e-01	6.335500e-02	1.875444e-01	-1.241894e-01
260           	1.559075e-01	4.171321e-01	6.339137e-02	1.876031e-01	-1.242118e-01
261           	1.558904e-01	4.170800e-01	6.336231e-02	1.875715e-01	-1.242092e-01
262           	1.559364e-01	4.171276e-01	6.347424e-02	1.876735e-01	-1.241992e-01
263           	1.559700e-01	4.171588e-01	6.349195e-02	1.877160e-01	-1.242240e-01
264           	1.560401e-01	4.172727e-01	6.361135e-02	1.878457e-01	-1.242344e-01
265           	1.560792e-01	4.172982e-01	6.365642e-02	1.879074e-01	-1.242510e-01
266           	1.561404e-01	4.173558e-01	6.380755e-02	1.880442e-01	-1.242366e-01
267           	1.562164e-01	4.174514e-01	6.376466e-02	1.880988e-01	-1.243341e-01
268           	1.562560e-01	4.174750e-01	6.383449e-02	1.881732e-01	-1.243387e-01
269           	1.562868e-01	4.174648e-01	6.371966e-02	1.881467e-01	-1.244270e-01
270           	1.563070e-01	4.174107e-01	6.377754e-02	1.881958e-01	-1.244183e-01
271           	1.562965e-01	4.172802e-01	6.366604e-02	1.881295e-01	-1.244634e-01
272           	1.562524e-01	4.171380e-01	6.368348e-02	1.880942e-01	-1.244107e-01
273           	1.561865e-01	4.169147e-01	6.353865e-02	1.879558e-01	-1.244172e-01
274           	1.561361e-01	4.167192e-01	6.356702e-02	1.879196e-01	-1.243526e-01
275           	1.560460e-01	4.164618e-01	6.349194e-02	1.877920e-01	-1.243000e-01
276           	1.559806e-01	4.162639e-01	6.352919e-02	1.877452e-01	-1.242160e-01
277           	1.558868e-01	4.159990e-01	6.347554e-02	1.876245e-01	-1.241490e-01
278           	1.558476e-01	4.158300e-01	6.356385e-02	1.876295e-01	-1.240657e-01
279           	1.557882e-01	4.156205e-01	6.355188e-02	1.875642e-01	-1.240123e-01
280           	1.557478e-01	4.154522e-01	6.366476e-02	1.875802e-01	-1.239154e-01
281           	1.556901e-01	4.152496e-01	6.367478e-02	1.875274e-01	-1.238527e-01
282           	1.556849e-01	4.151511e-01	6.380023e-02	1.875850e-01	-1.237848e-01
283           	1.556630e-01	4.150240e-01	6.378865e-02	1.875573e-01	-1.237686e-01
284           	1.556693e-01	4.149809e-01	6.387382e-02	1.876062e-01	-1.237324e-01
285           	1.556824e-01	4.149362e-01	6.385850e-02	1.876117e-01	-1.237532e-01
286           	1.557285e-01	4.149622e-01	6.398973e-02	1.877234e-01	-1.237336e-01
287           	1.557671e-01	4.150307e-01	6.391662e-02	1.877254e-01	-1.238087e-01
288           	1.558345e-01	4.151631e-01	6.396400e-02	1.878165e-01	-1.238525e-01
289           	1.559046e-01	4.153092e-01	6.386525e-02	1.878372e-01	-1.239719e-01
290           	1.559981e-01	4.155162e-01	6.390676e-02	1.879515e-01	-1.240447e-01
291           	1.560519e-01	4.156434e-01	6.384666e-02	1.879753e-01	-1.241286e-01
292           	1.561246e-01	4.158055e-01	6.390732e-02	1.880782e-01	-1.241709e-01
293           	1.561571e-01	4.158904e-01	6.386290e-02	1.880886e-01	-1.242257e-01
294           	1.562028e-01	4.160292e-01	6.386519e-02	1.881354e-01	-1.242702e-01
295           	1.562023e-01	4.160822e-01	6.376409e-02	1.880843e-01	-1.243202e-01
296           	1.562190e-01	4.161801e-01	6.376587e-02	1.881019e-01	-1.243360e-01
297           	1.562222e-01	4.162193e-01	6.371876e-02	1.880816e-01	-1.243629e-01
298           	1.562578e-01	4.163334e-01	6.378192e-02	1.881488e-01	-1.243669e-01
299           	1.562606e-01	4.163819e-01	6.372813e-02	1.881246e-01	-1.243965e-01
300           	1.563092e-01	4.165189e-01	6.378232e-02	1.882004e-01	-1.244181e-01
301           	1.562996e-01	4.165556e-01	6.371472e-02	1.881570e-01	-1.244423e-01
302           	1.563205e-01	4.166587e-01	6.374132e-02	1.881912e-01	-1.244498e-01
303           	1.562746e-01	4.166579e-01	6.363003e-02	1.880896e-01	-1.244596e-01
304           	1.563090e-01	4.167210e-01	6.372000e-02	1.881690e-01	-1.244490e-01
305           	1.563012e-01	4.167315e-01	6.365665e-02	1.881295e-01	-1.244729e-01
306           	1.563306e-01	4.168275e-01	6.366328e-02	1.881622e-01	-1.244989e-01
307           	1.563291e-01	4.168330e-01	6.356621e-02	1.881122e-01	-1.245460e-01
308           	1.563777e-01	4.169217e-01	6.357340e-02	1.881644e-01	-1.245910e-01
309           	1.564003e-01	4.169520e-01	6.345865e-02	1.881297e-01	-1.246710e-01
310           	1.564390e-01	4.170310e-01	6.344754e-02	1.881628e-01	-1.247153e-01
311           	1.564077e-01	4.169850e-01	6.330510e-02	1.880603e-01	-1.247552e-01
312           	1.564527e-01	4.170971e-01	6.328422e-02	1.880948e-01	-1.248106e-01
313           	1.564475e-01	4.170683e-01	6.319386e-02	1.880444e-01	-1.248506e-01
314           	1.564507e-01	4.171242e-01	6.317266e-02	1.880370e-01	-1.248644e-01
315           	1.564185e-01	4.171208e-01	6.303143e-02	1.879342e-01	-1.249027e-01
316           	1.563923e-01	4.171390e-01	6.305179e-02	1.879182e-01	-1.248664e-01
317           	1.563591e-01	4.171451e-01	6.300145e-02	1.878598e-01	-1.248583e-01
318           	1.563388e-01	4.171687e-01	6.301653e-02	1.878470e-01	-1.248305e-01
319           	1.562896e-01	4.171396e-01	6.300747e-02	1.877934e-01	-1.247859e-01
320           	1.562774e-01	4.171696e-01	6.307743e-02	1.878161e-01	-1.247387e-01
321           	1.562326e-01	4.171119e-01	6.308011e-02	1.877727e-01	-1.246926e-01
322           	1.562233e-01	4.171194e-01	6.319143e-02	1.878190e-01	-1.246276e-01
323           	1.561733e-01	4.170551e-01	6.318216e-02	1.877644e-01	-1.245822e-01
324           	1.561722e-01	4.170768e-01	6.324865e-02	1.877965e-01	-1.245478e-01
325           	1.561395e-01	4.170485e-01	6.318548e-02	1.877323e-01	-1.245468e-01
326           	1.561407e-01	4.170750e-01	6.323181e-02	1.877566e-01	-1.245248e-01
327           	1.561156e-01	4.170475e-01	6.315668e-02	1.876940e-01	-1.245373e-01
328           	1.561237e-01	4.170719e-01	6.323117e-02	1.877393e-01	-1.245081e-01
329           	1.561093e-01	4.170560e-01	6.318154e-02	1.877001e-01	-1.245186e-01
330           	1.561301e-01	4.171184e-01	6.320284e-02	1.877315e-01	-1.245287e-01
331           	1.561003e-01	4.171045e-01	6.309870e-02	1.876497e-01	-1.245510e-01
332           	1.561048e-01	4.171323e-01	6.314546e-02	1.876775e-01	-1.245320e-01
333           	1.560939e-01	4.171156e-01	6.309409e-02	1.876409e-01	-1.245469e-01
334           	1.561066e-01	4.171491e-01	6.317368e-02	1.876935e-01	-1.245198e-01
335           	1.560811e-01	4.170984e-01	6.314803e-02	1.876551e-01	-1.245071e-01
336           	1.560993e-01	4.171491e-01	6.320411e-02	1.877014e-01	-1.244973e-01
337           	1.560701e-01	4.171095e-01	6.311445e-02	1.876273e-01	-1.245128e-01
338           	1.560803e-01	4.171646e-01	6.313773e-02	1.876492e-01	-1.245114e-01
339           	1.560523e-01	4.171307e-01	6.300558e-02	1.875551e-01	-1.245496e-01
340           	1.560776e-01	4.171982e-01	6.306783e-02	1.876115e-01	-1.245436e-01
341           	1.560680e-01	4.171843e-01	6.298811e-02	1.875620e-01	-1.245739e-01
342           	1.560943e-01	4.172658e-01	6.302678e-02	1.876077e-01	-1.245809e-01
343           	1.560730e-01	4.172690e-01	6.295804e-02	1.875521e-01	-1.245940e-01
344           	1.560719e-01	4.173468e-01	6.296548e-02	1.875547e-01	-1.245892e-01
345           	1.560644e-01	4.173592e-01	6.291296e-02	1.875208e-01	-1.246079e-01
346           	1.560744e-01	4.174267e-01	6.295723e-02	1.875531e-01	-1.245958e-01
347           	1.560541e-01	4.174097e-01	6.293311e-02	1.875206e-01	-1.245875e-01
348           	1.560851e-01	4.174839e-01	6.300521e-02	1.875877e-01	-1.245825e-01
349           	1.560842e-01	4.174838e-01	6.298504e-02	1.875767e-01	-1.245916e-01
350           	1.561117e-01	4.175365e-01	6.305629e-02	1.876399e-01	-1.245836e-01
351           	1.560973e-01	4.174882e-01	6.304622e-02	1.876204e-01	-1.245742e-01
352           	1.561275e-01	4.175223e-01	6.314242e-02	1.876988e-01	-1.245563e-01
353           	1.561179e-01	4.174753e-01	6.316339e-02	1.876996e-01	-1.245362e-01
354           	1.561324e-01	4.174881e-01	6.326728e-02	1.877660e-01	-1.244987e-01
355           	1.561101e-01	4.174163e-01	6.328853e-02	1.877543e-01	-1.244658e-01
356           	1.561369e-01	4.174325e-01	6.343880e-02	1.878563e-01	-1.244175e-01
357           	1.561267e-01	4.173655e-01	6.349083e-02	1.878722e-01	-1.243813e-01
358           	1.561668e-01	4.173814e-01	6.365859e-02	1.879961e-01	-1.243375e-01
359           	1.561513e-01	4.173176e-01	6.369650e-02	1.879995e-01	-1.243030e-01
360           	1.562125e-01	4.173748e-01	6.383848e-02	1.881317e-01	-1.242932e-01
361           	1.562272e-01	4.173219e-01	6.389232e-02	1.881734e-01	-1.242810e-01
362           	1.562963e-01	4.173597e-01	6.405723e-02	1.883249e-01	-1.242677e-01
363           	1.563270e-01	4.172990e-01	6.417054e-02	1.884122e-01	-1.242417e-01
364           	1.564186e-01	4.173470e-01	6.438701e-02	1.886121e-01	-1.242251e-01