# vtk DataFile Version 2.0
track0
ASCII
DATASET POLYDATA
POINTS 15780 float
-1.001 -0.05 0.0011
-1.0008 -0.05 0.0011
-1.0006 -0.05 0.0011
-1.0004 -0.05 0.0011
-1.0002 -0.05 0.0011
-1 -0.05 0.0011
-0.9875 -0.05 0.0011
-0.975 -0.05 0.0011
-0.9625 -0.05 0.0011
-0.95 -0.05 0.0011
-0.9375 -0.05 0.00109999
-0.925 -0.05 0.00109999
-0.9125 -0.05 0.00109999
-0.9 -0.05 0.00109999
-0.8875 -0.05 0.00109999
-0.875 -0.05 0.00109999
-0.8625 -0.05 0.00109999
-0.85 -0.05 0.00109999
-0.8375 -0.05 0.00109998
-0.825 -0.0500001 0.00109998
-0.8125 -0.0500001 0.00109998
-0.8 -0.0500001 0.00109998
-0.7875 -0.0500001 0.00109998
-0.775 -0.0500001 0.00109998
-0.7625 -0.0500001 0.00109998
-0.75 -0.0500001 0.00109998
-0.7375 -0.0500001 0.00109997
-0.725 -0.0500001 0.00109997
-0.7125 -0.0500001 0.00109997
-0.7 -0.0500001 0.00109997
-0.6875 -0.0500001 0.00109997
-0.675 -0.0500001 0.00109997
-0.6625 -0.0500001 0.00109997
-0.65 -0.0500001 0.00109996
-0.6375 -0.0500001 0.00109996
-0.625 -0.0500001 0.00109996
-0.6125 -0.0500001 0.00109996
-0.6 -0.0500001 0.00109996
-0.5875 -0.0500001 0.00109996
-0.575 -0.0500001 0.00109996
-0.5625 -0.0500001 0.00109996
-0.55 -0.0500001 0.00109995
-0.5375 -0.0500001 0.00109995
-0.525 -0.0500001 0.00109995
-0.5125 -0.0500001 0.00109995
-0.5 -0.0500001 0.00109995
-0.4875 -0.0500001 0.00109995
-0.475 -0.0500001 0.00109995
-0.4625 -0.0500001 0.00109994
-0.45 -0.0500002 0.00109994
-0.4375 -0.0500002 0.00109994
-0.425 -0.0500002 0.00109994
-0.4125 -0.0500002 0.00109994
-0.4 -0.0500002 0.00109994
-0.3875 -0.0500002 0.00109994
-0.375 -0.0500002 0.00109994
-0.3625 -0.0500002 0.00109993
-0.35 -0.0500002 0.00109993
-0.3375 -0.0500002 0.00109993
-0.325 -0.0500002 0.00109993
-0.3125 -0.0500002 0.00109993
-0.3 -0.0500002 0.00109993
-0.2875 -0.0500002 0.00109993
-0.275 -0.0500002 0.00109993
-0.2625 -0.0500002 0.00109992
-0.25 -0.0500002 0.00109992
-0.2375 -0.0500002 0.00109992
-0.225 -0.0500002 0.00109992
-0.2125 -0.0500002 0.00109992
-0.2 -0.0500002 0.00109992
-0.1875 -0.0500002 0.00109992
-0.175 -0.0500002 0.00109992
-0.1625 -0.0500002 0.00109991
-0.15 -0.0500002 0.00109991
-0.1375 -0.0500002 0.00109991
-0.125 -0.0500002 0.00109991
-0.1125 -0.0500002 0.00109991
-0.1 -0.0500002 0.00109991
-0.0875 -0.0500002 0.00109991
-0.075 -0.0500002 0.00109991
-0.0625 -0.0500002 0.00109991
-0.05 -0.0500003 0.00109991
-0.0375 -0.0500003 0.0010999
-0.025 -0.0500003 0.0010999
-0.0125 -0.0500003 0.0010999
2.10607e-13 -0.0500003 0.0010999
0.0125 -0.0500003 0.0010999
0.025 -0.0500003 0.0010999
0.0375 -0.0500003 0.0010999
0.05 -0.0500003 0.0010999
0.0625 -0.0500003 0.0010999
0.075 -0.0500003 0.0010999
0.0875 -0.0500003 0.0010999
0.1 -0.0500003 0.00109989
0.1125 -0.0500003 0.00109989
0.125 -0.0500003 0.00109989
0.1375 -0.0500003 0.00109989
0.15 -0.0500003 0.00109989
0.1625 -0.0500003 0.00109989
0.175 -0.0500003 0.00109989
0.1875 -0.0500003 0.00109989
0.2 -0.0500003 0.00109989
0.2125 -0.0500003 0.00109989
0.225 -0.0500003 0.00109989
0.2375 -0.0500003 0.00109989
0.25 -0.0500003 0.00109989
0.2625 -0.0500003 0.00109988
0.275 -0.0500003 0.00109988
0.2875 -0.0500003 0.00109988
0.3 -0.0500003 0.00109988
0.3125 -0.0500003 0.00109988
0.325 -0.0500003 0.00109988
0.3375 -0.0500003 0.00109988
0.35 -0.0500003 0.00109988
0.3625 -0.0500003 0.00109988
0.375 -0.0500003 0.00109988
0.3875 -0.0500003 0.00109988
0.4 -0.0500004 0.00109988
0.4125 -0.0500004 0.00109988
0.425 -0.0500004 0.00109988
0.4375 -0.0500004 0.00109988
0.45 -0.0500004 0.00109988
0.4625 -0.0500004 0.00109988
0.475 -0.0500004 0.00109988
0.4875 -0.0500004 0.00109988
0.5 -0.0500004 0.00109988
0.5125 -0.0500004 0.00109988
0.525 -0.0500004 0.00109988
0.5375 -0.0500004 0.00109988
0.55 -0.0500004 0.00109988
0.5625 -0.0500004 0.00109988
0.575 -0.0500004 0.00109987
0.5875 -0.0500004 0.00109987
0.6 -0.0500004 0.00109987
0.6125 -0.0500004 0.00109987
0.625 -0.0500004 0.00109987
0.6375 -0.0500004 0.00109987
0.65 -0.0500004 0.00109987
0.6625 -0.0500004 0.00109987
0.675 -0.0500004 0.00109987
0.6875 -0.0500004 0.00109987
0.7 -0.0500004 0.00109987
0.7125 -0.0500004 0.00109987
0.725 -0.0500004 0.00109987
0.7375 -0.0500004 0.00109987
0.75 -0.0500004 0.00109987
0.7625 -0.0500004 0.00109987
0.775 -0.0500004 0.00109987
0.7875 -0.0500004 0.00109987
0.8 -0.0500004 0.00109987
0.8125 -0.0500004 0.00109987
0.825 -0.0500004 0.00109987
0.8375 -0.0500004 0.00109987
0.85 -0.0500004 0.00109987
0.8625 -0.0500004 0.00109987
0.875 -0.0500004 0.00109987
0.8875 -0.0500004 0.00109987
0.9 -0.0500004 0.00109987
0.9125 -0.0500005 0.00109988
0.925 -0.0500005 0.00109988
0.9375 -0.0500005 0.00109988
0.95 -0.0500005 0.00109988
0.9625 -0.0500005 0.00109988
0.975 -0.0500005 0.00109988
0.9875 -0.0500005 0.00109988
1 -0.0500005 0.00109988
1.0125 -0.0500005 0.00109988
1.025 -0.0500005 0.00109988
1.0375 -0.0500005 0.00109988
1.05 -0.0500005 0.00109988
1.0625 -0.0500005 0.00109988
1.075 -0.0500005 0.00109988
1.0875 -0.0500005 0.00109988
1.1 -0.0500005 0.00109988
1.1125 -0.0500005 0.00109988
1.125 -0.0500005 0.00109988
1.1375 -0.0500005 0.00109988
1.15 -0.0500005 0.00109988
1.1625 -0.0500005 0.00109988
1.175 -0.0500005 0.00109988
1.1875 -0.0500005 0.00109988
1.2 -0.0500005 0.00109988
1.2125 -0.0500005 0.00109988
1.225 -0.0500005 0.00109988
1.2375 -0.0500005 0.00109989
1.25 -0.0500005 0.00109989
1.2625 -0.0500005 0.00109989
1.275 -0.0500005 0.00109989
1.2875 -0.0500005 0.00109989
1.3 -0.0500005 0.00109989
1.3125 -0.0500005 0.00109989
1.325 -0.0500005 0.00109989
1.3375 -0.0500005 0.00109989
1.35 -0.0500005 0.00109989
1.3625 -0.0500005 0.00109989
1.375 -0.0500005 0.00109989
1.3875 -0.0500005 0.00109989
1.4 -0.0500005 0.00109989
1.4125 -0.0500005 0.00109989
1.425 -0.0500005 0.00109989
1.4375 -0.0500005 0.0010999
1.45 -0.0500005 0.0010999
1.4625 -0.0500005 0.0010999
1.475 -0.0500005 0.0010999
1.4875 -0.0500005 0.0010999
1.5 -0.0500006 0.0010999
1.5125 -0.0500006 0.0010999
1.525 -0.0500006 0.0010999
1.5375 -0.0500006 0.0010999
1.55 -0.0500006 0.0010999
1.5625 -0.0500006 0.0010999
1.575 -0.0500006 0.0010999
1.5875 -0.0500006 0.0010999
1.6 -0.0500006 0.0010999
1.6125 -0.0500006 0.00109991
1.625 -0.0500006 0.00109991
1.6375 -0.0500006 0.00109991
1.65 -0.0500006 0.00109991
1.6625 -0.0500006 0.00109991
1.675 -0.0500006 0.00109991
1.6875 -0.0500006 0.00109991
1.7 -0.0500006 0.00109991
1.7125 -0.0500006 0.00109991
1.725 -0.0500006 0.00109991
1.7375 -0.0500006 0.00109991
1.75 -0.0500006 0.00109991
1.7625 -0.0500006 0.00109992
1.775 -0.0500006 0.00109992
1.7875 -0.0500006 0.00109992
1.8 -0.0500006 0.00109992
1.8125 -0.0500006 0.00109992
1.825 -0.0500006 0.00109992
1.8375 -0.0500006 0.00109992
1.85 -0.0500006 0.00109992
1.8625 -0.0500006 0.00109992
1.875 -0.0500006 0.00109992
1.8875 -0.0500006 0.00109992
1.9 -0.0500006 0.00109992
1.9125 -0.0500006 0.00109993
1.925 -0.0500006 0.00109993
1.9375 -0.0500006 0.00109993
1.95 -0.0500006 0.00109993
1.9625 -0.0500006 0.00109993
1.975 -0.0500006 0.00109993
1.9875 -0.0500006 0.00109993
2 -0.0500006 0.00109993
2.0125 -0.0500006 0.00109993
2.025 -0.0500006 0.00109993
2.0375 -0.0500006 0.00109993
2.05 -0.0500006 0.00109993
2.0625 -0.0500006 0.00109994
2.075 -0.0500006 0.00109994
2.0875 -0.0500006 0.00109994
2.1 -0.0500006 0.00109994
2.1125 -0.0500006 0.00109994
2.125 -0.0500006 0.00109994
2.1375 -0.0500006 0.00109994
2.15 -0.0500006 0.00109994
2.1625 -0.0500006 0.00109994
2.175 -0.0500007 0.00109994
2.1875 -0.0500007 0.00109994
2.2 -0.0500007 0.00109994
2.2125 -0.0500007 0.00109994
2.225 -0.0500007 0.00109995
2.2375 -0.0500007 0.00109995
2.25 -0.0500007 0.00109995
2.2625 -0.0500007 0.00109995
2.275 -0.0500007 0.00109995
2.2875 -0.0500007 0.00109995
2.3 -0.0500007 0.00109995
2.3125 -0.0500007 0.00109995
2.325 -0.0500007 0.00109995
2.3375 -0.0500007 0.00109995
2.35 -0.0500007 0.00109995
2.3625 -0.0500007 0.00109995
2.375 -0.0500007 0.00109995
2.3875 -0.0500007 0.00109996
2.4 -0.0500007 0.00109996
2.4125 -0.0500007 0.00109996
2.425 -0.0500007 0.00109996
2.4375 -0.0500007 0.00109996
2.45 -0.0500007 0.00109996
2.4625 -0.0500007 0.00109996
2.475 -0.0500007 0.00109996
2.4875 -0.0500007 0.00109996
2.5 -0.0500007 0.00109996
2.5125 -0.0500007 0.00109996
2.525 -0.0500007 0.00109996
2.5375 -0.0500007 0.00109996
2.55 -0.0500007 0.00109996
2.5625 -0.0500007 0.00109997
2.575 -0.0500007 0.00109997
2.5875 -0.0500007 0.00109997
2.6 -0.0500007 0.00109997
2.6125 -0.0500007 0.00109997
2.625 -0.0500007 0.00109997
2.6375 -0.0500007 0.00109997
2.65 -0.0500007 0.00109997
2.6625 -0.0500007 0.00109997
2.675 -0.0500007 0.00109997
2.6875 -0.0500007 0.00109997
2.7 -0.0500007 0.00109997
2.7125 -0.0500007 0.00109997
2.725 -0.0500007 0.00109997
2.7375 -0.0500007 0.00109997
2.75 -0.0500007 0.00109997
2.7625 -0.0500007 0.00109998
2.775 -0.0500007 0.00109998
2.7875 -0.0500007 0.00109998
2.8 -0.0500007 0.00109998
2.8125 -0.0500007 0.00109998
2.825 -0.0500007 0.00109998
2.8375 -0.0500007 0.00109998
2.85 -0.0500007 0.00109998
2.8625 -0.0500008 0.00109998
2.875 -0.0500008 0.00109998
2.8875 -0.0500008 0.00109998
2.9 -0.0500008 0.00109998
2.9125 -0.0500008 0.00109998
2.925 -0.0500008 0.00109998
2.9375 -0.0500008 0.00109998
2.95 -0.0500008 0.00109998
2.9625 -0.0500008 0.00109998
2.975 -0.0500008 0.00109998
2.9875 -0.0500008 0.00109998
3 -0.0500008 0.00109998
3.0125 -0.0500008 0.00109999
3.025 -0.0500008 0.00109999
3.0375 -0.0500008 0.00109999
3.05 -0.0500008 0.00109999
3.0625 -0.0500008 0.00109999
3.075 -0.0500008 0.00109999
3.0875 -0.0500008 0.00109999
3.1 -0.0500008 0.00109999
3.1125 -0.0500008 0.00109999
3.125 -0.0500008 0.00109999
3.1375 -0.0500008 0.00109999
3.15 -0.0500008 0.00109999
3.1625 -0.0500008 0.00109999
3.175 -0.0500008 0.00109999
3.1875 -0.0500008 0.00109999
3.2 -0.0500008 0.00109999
3.2125 -0.0500008 0.00109999
3.225 -0.0500008 0.00109999
3.2375 -0.0500008 0.00109999
3.25 -0.0500008 0.00109999
3.2625 -0.0500008 0.00109999
3.275 -0.0500008 0.00109999
3.2875 -0.0500008 0.00109999
3.3 -0.0500008 0.00109999
3.3125 -0.0500008 0.00109999
3.325 -0.0500008 0.00109999
3.3375 -0.0500008 0.00109999
3.35 -0.0500008 0.0011
3.3625 -0.0500008 0.0011
[...]
POINT_DATA 15780
 FIELD attributes 1
U 3 15780 float
30.0002 	-7.01782e-06 	-6.30587e-06 30.0002 	-6.84333e-06 	-6.51454e-06 30.0002 	-6.66884e-06 	-6.7232e-06 30.0002 	-6.49436e-06 	-6.93187e-06 30.0002 	-6.31987e-06 	-7.14054e-06 30.0002 	-6.14538e-06 	-7.3492e-06 30.0004 	-1.2385e-05 	-1.261e-06 30.0004 	-1.2385e-05 	-1.261e-06 30.0004 	-1.2385e-05 	-1.261e-06 30.0004 	-1.2385e-05 	-1.261e-06 30.0002 	-7.04279e-08 	-6.84366e-06 30.0005 	-1.07089e-05 	-1.68705e-06 30.0005 	-1.07089e-05 	-1.68705e-06 30.0005 	-1.07089e-05 	-1.68705e-06 30.0005 	-1.07089e-05 	-1.68704e-06 30.0002 	-7.20991e-08 	-6.59607e-06 30.0005 	-9.95828e-06 	-2.08023e-06 30.0005 	-9.95828e-06 	-2.08022e-06 30.0005 	-9.95827e-06 	-2.08022e-06 30.0005 	-9.95826e-06 	-2.08022e-06 30.0003 	-4.59297e-06 	-6.24725e-06 30.0005 	-9.69151e-06 	-2.34895e-06 30.0005 	-9.6915e-06 	-2.34895e-06 30.0005 	-9.69149e-06 	-2.34895e-06 30.0005 	-9.69148e-06 	-2.34895e-06 30.0003 	-7.56758e-08 	-6.57614e-06 30.0005 	-9.5233e-06 	-2.49782e-06 30.0005 	-9.52329e-06 	-2.49782e-06 30.0005 	-9.52328e-06 	-2.49782e-06 30.0005 	-9.52327e-06 	-2.49782e-06 30.0003 	-7.74244e-08 	-6.52626e-06 30.0005 	-9.38692e-06 	-2.55606e-06 30.0005 	-9.38691e-06 	-2.55606e-06 30.0005 	-9.38691e-06 	-2.55606e-06 30.0005 	-9.3869e-06 	-2.55606e-06 30.0003 	-4.26676e-06 	-6.08528e-06 30.0005 	-9.27949e-06 	-2.55829e-06 30.0005 	-9.27948e-06 	-2.55829e-06 30.0005 	-9.27947e-06 	-2.55829e-06 30.0005 	-9.27946e-06 	-2.55829e-06 30.0003 	-4.19914e-06 	-5.97789e-06 30.0006 	-9.18726e-06 	-2.53043e-06 30.0006 	-9.18725e-06 	-2.53042e-06 30.0006 	-9.18724e-06 	-2.53042e-06 30.0006 	-9.18723e-06 	-2.53042e-06 30.0003 	-8.26947e-08 	-6.20126e-06 30.0006 	-9.09718e-06 	-2.48118e-06 30.0006 	-9.09717e-06 	-2.48118e-06 30.0006 	-9.09716e-06 	-2.48118e-06 30.0006 	-9.09715e-06 	-2.48117e-06 30.0003 	-8.44408e-08 	-6.05423e-06 30.0006 	-9.00471e-06 	-2.41361e-06 30.0006 	-9.0047e-06 	-2.4136e-06 30.0006 	-9.00469e-06 	-2.4136e-06 30.0006 	-9.00468e-06 	-2.4136e-06 30.0003 	-8.61921e-08 	-5.88781e-06 30.0006 	-8.90856e-06 	-2.32972e-06 30.0006 	-8.90855e-06 	-2.32972e-06 30.0006 	-8.90854e-06 	-2.32972e-06 30.0006 	-8.90853e-06 	-2.32972e-06 30.0003 	-3.93771e-06 	-5.36346e-06 30.0006 	-8.80851e-06 	-2.23275e-06 30.0006 	-8.8085e-06 	-2.23274e-06 30.0006 	-8.8085e-06 	-2.23274e-06 30.0006 	-8.80849e-06 	-2.23274e-06 30.0003 	-3.86392e-06 	-5.16475e-06 30.0006 	-8.70421e-06 	-2.12414e-06 30.0006 	-8.7042e-06 	-2.12414e-06 30.0006 	-8.7042e-06 	-2.12414e-06 30.0006 	-8.70419e-06 	-2.12414e-06 30.0003 	-9.14439e-08 	-5.28457e-06 30.0006 	-8.59602e-06 	-2.00508e-06 30.0006 	-8.59601e-06 	-2.00508e-06 30.0006 	-8.59601e-06 	-2.00508e-06 30.0006 	-8.596e-06 	-2.00508e-06 30.0003 	-3.7043e-06 	-4.71939e-06 30.0007 	-8.48465e-06 	-1.87668e-06 30.0007 	-8.48464e-06 	-1.87668e-06 30.0007 	-8.48464e-06 	-1.87668e-06 30.0007 	-8.48463e-06 	-1.87668e-06 30.0003 	-3.61921e-06 	-4.47431e-06 30.0007 	-8.37131e-06 	-1.73884e-06 30.0007 	-8.3713e-06 	-1.73884e-06 30.0007 	-8.37129e-06 	-1.73884e-06 30.0007 	-8.37129e-06 	-1.73884e-06 30.0004 	-9.66868e-08 	-4.54319e-06 30.0007 	-8.25976e-06 	-1.59804e-06 30.0007 	-8.25975e-06 	-1.59803e-06 30.0007 	-8.25975e-06 	-1.59803e-06 30.0007 	-8.25974e-06 	-1.59803e-06 30.0004 	-9.84375e-08 	-4.27124e-06 30.0007 	-8.14776e-06 	-1.46323e-06 30.0007 	-8.14775e-06 	-1.46323e-06 30.0007 	-8.14775e-06 	-1.46323e-06 30.0007 	-8.14774e-06 	-1.46323e-06 30.0004 	-1.00178e-07 	-3.98927e-06 30.0007 	-8.01969e-06 	-1.32073e-06 30.0007 	-8.01969e-06 	-1.32072e-06 30.0007 	-8.01968e-06 	-1.32072e-06 30.0007 	-8.01968e-06 	-1.32072e-06 30.0004 	-3.25088e-06 	-3.37795e-06 30.0007 	-7.8809e-06 	-1.16801e-06 30.0007 	-7.8809e-06 	-1.16801e-06 30.0007 	-7.8809e-06 	-1.16801e-06 30.0007 	-7.88089e-06 	-1.16801e-06 30.0004 	-1.03619e-07 	-3.40288e-06 30.0007 	-7.74499e-06 	-1.00788e-06 30.0007 	-7.74499e-06 	-1.00788e-06 30.0007 	-7.74498e-06 	-1.00788e-06 30.0007 	-7.74498e-06 	-1.00788e-06 30.0004 	-1.05339e-07 	-3.10327e-06 30.0007 	-7.61086e-06 	-8.41866e-07 30.0007 	-7.61085e-06 	-8.41865e-07 30.0007 	-7.61085e-06 	-8.41865e-07 30.0007 	-7.61085e-06 	-8.41865e-07 30.0004 	-2.93172e-06 	-2.48788e-06 30.0007 	-7.47508e-06 	-6.70215e-07 30.0007 	-7.47508e-06 	-6.70215e-07 30.0007 	-7.47508e-06 	-6.70215e-07 30.0007 	-7.47508e-06 	-6.70215e-07 30.0004 	-2.82526e-06 	-2.18312e-06 30.0007 	-7.34297e-06 	-4.97061e-07 30.0007 	-7.34297e-06 	-4.97061e-07 30.0007 	-7.34297e-06 	-4.97061e-07 30.0007 	-7.34297e-06 	-4.9706e-07 30.0004 	-1.10442e-07 	-2.17111e-06 30.0007 	-7.21518e-06 	-3.17334e-07 30.0007 	-7.21518e-06 	-3.17334e-07 30.0007 	-7.21518e-06 	-3.17334e-07 30.0007 	-7.21518e-06 	-3.17334e-07 30.0004 	-1.12125e-07 	-1.85337e-06 30.0007 	-7.09845e-06 	-1.38228e-07 30.0007 	-7.09845e-06 	-1.38228e-07 30.0007 	-7.09845e-06 	-1.38228e-07 30.0007 	-7.09845e-06 	-1.38228e-07 30.0004 	-1.13787e-07 	-1.54903e-06 30.0007 	-6.98512e-06 	4.08397e-08 30.0007 	-6.98512e-06 	4.08397e-08 30.0007 	-6.98512e-06 	4.08397e-08 30.0007 	-6.98512e-06 	4.08397e-08 30.0004 	-2.43883e-06 	-9.58504e-07 30.0007 	-6.87152e-06 	2.14652e-07 30.0007 	-6.87152e-06 	2.14652e-07 30.0007 	-6.87153e-06 	2.14652e-07 30.0007 	-6.87153e-06 	2.14652e-07 30.0004 	-2.34723e-06 	-6.82303e-07 30.0007 	-6.75341e-06 	3.90705e-07 30.0007 	-6.75341e-06 	3.90705e-07 30.0007 	-6.75341e-06 	3.90705e-07 30.0007 	-6.75341e-06 	3.90705e-07 30.0004 	-1.18779e-07 	-7.09778e-07 30.0007 	-6.64293e-06 	5.6436e-07 30.0007 	-6.64293e-06 	5.6436e-07 30.0007 	-6.64293e-06 	5.6436e-07 30.0007 	-6.64293e-06 	5.6436e-07 30.0004 	-2.16692e-06 	-1.45443e-07 30.0007 	-6.53596e-06 	7.27386e-07 30.0007 	-6.53596e-06 	7.27387e-07 30.0007 	-6.53596e-06 	7.27387e-07 30.0007 	-6.53596e-06 	7.27387e-07 30.0004 	-2.08125e-06 	1.13835e-07 30.0007 	-6.43066e-06 	8.78825e-07 30.0007 	-6.43066e-06 	8.78825e-07 30.0007 	-6.43066e-06 	8.78825e-07 30.0007 	-6.43066e-06 	8.78825e-07 30.0004 	-1.23714e-07 	7.05731e-08 30.0007 	-6.32312e-06 	1.01778e-06 30.0007 	-6.32312e-06 	1.01778e-06 30.0007 	-6.32312e-06 	1.01778e-06 30.0007 	-6.32312e-06 	1.01778e-06 30.0004 	-1.25312e-07 	3.15805e-07 30.0007 	-6.21675e-06 	1.14061e-06 30.0007 	-6.21675e-06 	1.14061e-06 30.0007 	-6.21675e-06 	1.14062e-06 30.0007 	-6.21676e-06 	1.14062e-06 30.0004 	-1.26898e-07 	5.45525e-07 30.0007 	-6.11548e-06 	1.25632e-06 30.0007 	-6.11548e-06 	1.25632e-06 30.0007 	-6.11549e-06 	1.25632e-06 30.0007 	-6.11549e-06 	1.25632e-06 30.0004 	-1.76445e-06 	1.03208e-06 30.0007 	-6.02275e-06 	1.37126e-06 30.0007 	-6.02276e-06 	1.37127e-06 30.0007 	-6.02276e-06 	1.37127e-06 30.0007 	-6.02276e-06 	1.37127e-06 30.0004 	-1.29999e-07 	9.36943e-07 30.0007 	-5.94309e-06 	1.48849e-06 30.0007 	-5.94309e-06 	1.48849e-06 30.0007 	-5.94309e-06 	1.4885e-06 30.0007 	-5.9431e-06 	1.4885e-06 30.0004 	-1.31497e-07 	1.10456e-06 30.0007 	-5.87185e-06 	1.59288e-06 30.0007 	-5.87185e-06 	1.59288e-06 30.0007 	-5.87186e-06 	1.59288e-06 30.0007 	-5.87186e-06 	1.59289e-06 30.0004 	-1.59155e-06 	1.53877e-06 30.0007 	-5.80221e-06 	1.67931e-06 30.0007 	-5.80222e-06 	1.67931e-06 30.0007 	-5.80222e-06 	1.67931e-06 30.0007 	-5.80223e-06 	1.67931e-06 30.0003 	-1.54432e-06 	1.67822e-06 30.0007 	-5.73415e-06 	1.7501e-06 30.0007 	-5.73415e-06 	1.75011e-06 30.0007 	-5.73415e-06 	1.75011e-06 30.0007 	-5.73416e-06 	1.75011e-06 30.0003 	-1.36167e-07 	1.52473e-06 30.0006 	-5.66898e-06 	1.80981e-06 30.0006 	-5.66899e-06 	1.80981e-06 30.0006 	-5.66899e-06 	1.80981e-06 30.0006 	-5.66899e-06 	1.80981e-06 30.0003 	-1.37702e-07 	1.63228e-06 30.0006 	-5.60887e-06 	1.85994e-06 30.0006 	-5.60887e-06 	1.85994e-06 30.0006 	-5.60888e-06 	1.85994e-06 30.0006 	-5.60888e-06 	1.85995e-06 30.0003 	-1.3915e-07 	1.72401e-06 30.0006 	-5.55453e-06 	1.90043e-06 30.0006 	-5.55454e-06 	1.90044e-06 30.0006 	-5.55454e-06 	1.90044e-06 30.0006 	-5.55455e-06 	1.90044e-06 30.0003 	-1.38893e-06 	2.07104e-06 30.0006 	-5.50566e-06 	1.93109e-06 30.0006 	-5.50566e-06 	1.93109e-06 30.0006 	-5.50567e-06 	1.93109e-06 30.0006 	-5.50567e-06 	1.9311e-06 30.0003 	-1.36188e-06 	2.13098e-06 30.0006 	-5.46188e-06 	1.95183e-06 30.0006 	-5.46189e-06 	1.95183e-06 30.0006 	-5.46189e-06 	1.95183e-06 30.0006 	-5.46189e-06 	1.95183e-06 30.0003 	-1.43103e-07 	1.90827e-06 30.0006 	-5.42303e-06 	1.96277e-06 30.0006 	-5.42303e-06 	1.96277e-06 30.0006 	-5.42304e-06 	1.96278e-06 30.0006 	-5.42304e-06 	1.96278e-06 30.0003 	-1.32344e-06 	2.20767e-06 30.0006 	-5.38902e-06 	1.9643e-06 30.0006 	-5.38903e-06 	1.9643e-06 30.0006 	-5.38903e-06 	1.9643e-06 30.0006 	-5.38904e-06 	1.9643e-06 30.0003 	-1.31165e-06 	2.22555e-06 30.0006 	-5.3598e-06 	1.95689e-06 30.0006 	-5.3598e-06 	1.9569e-06 30.0006 	-5.35981e-06 	1.9569e-06 30.0006 	-5.35981e-06 	1.9569e-06 30.0003 	-1.46889e-07 	1.96618e-06 30.0005 	-5.33526e-06 	1.94109e-06 30.0005 	-5.33526e-06 	1.94109e-06 30.0005 	-5.33526e-06 	1.94109e-06 30.0005 	-5.33527e-06 	1.94109e-06 30.0003 	-1.48108e-07 	1.96057e-06 30.0005 	-5.31521e-06 	1.9179e-06 30.0005 	-5.31521e-06 	1.9179e-06 30.0005 	-5.31522e-06 	1.9179e-06 30.0005 	-5.31522e-06 	1.9179e-06 30.0003 	-1.49303e-07 	1.94424e-06 30.0005 	-5.29957e-06 	1.88796e-06 30.0005 	-5.29957e-06 	1.88796e-06 30.0005 	-5.29957e-06 	1.88796e-06 30.0005 	-5.29958e-06 	1.88796e-06 30.0003 	-1.30901e-06 	2.17901e-06 30.0005 	-5.28818e-06 	1.85186e-06 30.0005 	-5.28818e-06 	1.85186e-06 30.0005 	-5.28819e-06 	1.85186e-06 30.0005 	-5.28819e-06 	1.85186e-06 30.0003 	-1.51606e-07 	1.8823e-06 30.0005 	-5.28085e-06 	1.81003e-06 30.0005 	-5.28086e-06 	1.81003e-06 30.0005 	-5.28086e-06 	1.81004e-06 30.0005 	-5.28086e-06 	1.81004e-06 30.0003 	-1.52707e-07 	1.83817e-06 30.0005 	-5.27736e-06 	1.76311e-06 30.0005 	-5.27736e-06 	1.76311e-06 30.0005 	-5.27737e-06 	1.76311e-06 30.0005 	-5.27737e-06 	1.76311e-06 30.0003 	-1.34817e-06 	2.04409e-06 30.0005 	-5.27748e-06 	1.71157e-06 30.0005 	-5.27748e-06 	1.71157e-06 30.0005 	-5.27749e-06 	1.71157e-06 30.0005 	-5.27749e-06 	1.71157e-06 30.0003 	-1.36822e-06 	1.98425e-06 30.0005 	-5.28101e-06 	1.65593e-06 30.0005 	-5.28101e-06 	1.65594e-06 30.0005 	-5.28102e-06 	1.65594e-06 30.0005 	-5.28102e-06 	1.65594e-06 30.0002 	-1.55861e-07 	1.6628e-06 30.0005 	-5.28777e-06 	1.59662e-06 30.0005 	-5.28777e-06 	1.59662e-06 30.0005 	-5.28777e-06 	1.59662e-06 30.0005 	-5.28778e-06 	1.59662e-06 30.0002 	-1.569e-07 	1.59255e-06 30.0004 	-5.29769e-06 	1.53409e-06 30.0004 	-5.29769e-06 	1.5341e-06 30.0004 	-5.29769e-06 	1.5341e-06 30.0004 	-5.29769e-06 	1.5341e-06 30.0002 	-1.57963e-07 	1.51769e-06 30.0004 	-5.31059e-06 	1.46883e-06 30.0004 	-5.3106e-06 	1.46883e-06 30.0004 	-5.3106e-06 	1.46883e-06 30.0004 	-5.3106e-06 	1.46883e-06 30.0002 	-1.47984e-06 	1.69063e-06 30.0004 	-5.3261e-06 	1.40137e-06 30.0004 	-5.3261e-06 	1.40137e-06 30.0004 	-5.32611e-06 	1.40137e-06 30.0004 	-5.32611e-06 	1.40137e-06 30.0002 	-1.51435e-06 	1.60714e-06 30.0004 	-5.34398e-06 	1.33212e-06 30.0004 	-5.34399e-06 	1.33212e-06 30.0004 	-5.34399e-06 	1.33212e-06 30.0004 	-5.34399e-06 	1.33212e-06 30.0002 	-1.6118e-07 	1.27186e-06 30.0004 	-5.36398e-06 	1.26141e-06 30.0004 	-5.36398e-06 	1.26141e-06 30.0004 	-5.36398e-06 	1.26141e-06 30.0004 	-5.36399e-06 	1.26141e-06 30.0002 	-1.58968e-06 	1.43251e-06 30.0004 	-5.38578e-06 	1.18974e-06 30.0004 	-5.38578e-06 	1.18974e-06 30.0004 	-5.38578e-06 	1.18974e-06 30.0004 	-5.38578e-06 	1.18974e-06 30.0002 	-1.63017e-06 	1.34243e-06 30.0004 	-5.40938e-06 	1.1174e-06 30.0004 	-5.40938e-06 	1.1174e-06 30.0004 	-5.40938e-06 	1.1174e-06 30.0004 	-5.40938e-06 	1.11741e-06 30.0002 	-1.64193e-07 	1.00608e-06 30.0004 	-5.43454e-06 	1.04473e-06 30.0004 	-5.43454e-06 	1.04473e-06 30.0004 	-5.43454e-06 	1.04473e-06 30.0004 	-5.43454e-06 	1.04473e-06 30.0002 	-1.65149e-07 	9.15605e-07 30.0004 	-5.46016e-06 	9.72199e-07 30.0004 	-5.46016e-06 	9.72199e-07 30.0004 	-5.46017e-06 	9.722e-07 30.0004 	-5.46017e-06 	9.722e-07 30.0002 	-1.6605e-07 	8.24981e-07 30.0004 	-5.48618e-06 	8.99419e-07 30.0004 	-5.48618e-06 	8.9942e-07 30.0004 	-5.48619e-06 	8.9942e-07 30.0004 	-5.48619e-06 	8.9942e-07 30.0002 	-1.80707e-06 	9.75436e-07 30.0004 	-5.51294e-06 	8.2589e-07 30.0004 	-5.51295e-06 	8.2589e-07 30.0004 	-5.51295e-06 	8.2589e-07 30.0004 	-5.51295e-06 	8.25891e-07 30.0002 	-1.67744e-07 	6.43614e-07 30.0003 	-5.54269e-06 	7.51932e-07 30.0003 	-5.54269e-06 	7.51932e-07 30.0003 	-5.54269e-06 	7.51932e-07 30.0003 	-5.54269e-06 	7.51932e-07 30.0002 	-1.68582e-07 	5.5262e-07 30.0003 	-5.57715e-06 	6.7739e-07 30.0003 	-5.57716e-06 	6.7739e-07 30.0003 	-5.57716e-06 	6.7739e-07 30.0003 	-5.57716e-06 	6.77391e-07 30.0002 	-1.95542e-06 	7.0133e-07 30.0003 	-5.61399e-06 	6.0432e-07 30.0003 	-5.61399e-06 	6.0432e-07 30.0003 	-5.61399e-06 	6.0432e-07 30.0003 	-5.61399e-06 	6.0432e-07 30.0002 	-2.00762e-06 	6.117e-07 30.0003 	-5.65013e-06 	5.34615e-07 30.0003 	-5.65013e-06 	5.34615e-07 30.0003 	-5.65013e-06 	5.34615e-07 30.0003 	-5.65013e-06 	5.34615e-07 30.0002 	-1.71077e-07 	2.80921e-07 30.0003 	-5.68124e-06 	4.67595e-07 30.0003 	-5.68124e-06 	4.67595e-07 30.0003 	-5.68124e-06 	4.67595e-07 30.0003 	-5.68124e-06 	4.67595e-07 30.0002 	-1.71908e-07 	1.97308e-07 30.0003 	-5.70965e-06 	4.03155e-07 30.0003 	-5.70965e-06 	4.03156e-07 30.0003 	-5.70965e-06 	4.03156e-07 30.0003 	-5.70965e-06 	4.03156e-07 30.0002 	-1.72704e-07 	1.16378e-07 30.0003 	-5.73781e-06 	3.39191e-07 30.0003 	-5.73781e-06 	3.39191e-07 30.0003 	-5.73781e-06 	3.39191e-07 30.0003 	-5.73781e-06 	3.39191e-07 30.0002 	-2.20089e-06 	2.741e-07 30.0003 	-5.76578e-06 	2.75223e-07 30.0003 	-5.76578e-06 	2.75223e-07 30.0003 	-5.76578e-06 	2.75223e-07 30.0003 	-5.76578e-06 	2.75223e-07 30.0002 	-2.24782e-06 	1.96358e-07 30.0003 	-5.79261e-06 	2.10748e-07 30.0003 	-5.79261e-06 	2.10748e-07 30.0003 	-5.79261e-06 	2.10748e-07 30.0003 	-5.79261e-06 	2.10748e-07 30.0002 	-1.74909e-07 	-1.09165e-07 30.0003 	-5.82066e-06 	1.48752e-07 30.0003 	-5.82067e-06 	1.48752e-07 30.0003 	-5.82067e-06 	1.48752e-07 30.0003 	-5.82067e-06 	1.48752e-07 30.0002 	-2.34163e-06 	4.46761e-08 30.0003 	-5.84992e-06 	8.99574e-08 30.0003 	-5.84992e-06 	8.99574e-08 30.0003 	-5.84992e-06 	8.99574e-08 30.0003 	-5.84992e-06 	8.99574e-08 30.0002 	-2.38894e-06 	-2.90975e-08 30.0003 	-5.88035e-06 	3.47855e-08 30.0003 	-5.88035e-06 	3.47855e-08 30.0003 	-5.88035e-06 	3.47855e-08 30.0003 	-5.88035e-06 	3.47855e-08 30.0002 	-1.76948e-07 	-3.30788e-07 30.0003 	-5.91222e-06 	-1.70865e-08 30.0003 	-5.91222e-06 	-1.70865e-08 30.0003 	-5.91222e-06 	-1.70865e-08 30.0003 	-5.91222e-06 	-1.70865e-08 30.0002 	-1.776e-07 	-4.01822e-07 30.0003 	-5.94533e-06 	-6.90609e-08 30.0003 	-5.94533e-06 	-6.90609e-08 30.0003 	-5.94533e-06 	-6.90609e-08 30.0003 	-5.94533e-06 	-6.90609e-08 30.0002 	-1.78205e-07 	-4.67093e-07 30.0003 	-5.97727e-06 	-1.23323e-07 30.0003 	-5.97727e-06 	-1.23323e-07 30.0003 	-5.97727e-06 	-1.23323e-07 30.0003 	-5.97727e-06 	-1.23323e-07 30.0002 	-2.58049e-06 	-3.01375e-07 30.0003 	-6.00504e-06 	-1.77965e-07 30.0003 	-6.00504e-06 	-1.77965e-07 30.0003 	-6.00504e-06 	-1.77965e-07 30.0003 	-6.00504e-06 	-1.77965e-07 30.0002 	-1.79387e-07 	-5.84902e-07 30.0003 	-6.0292e-06 	-2.29218e-07 30.0003 	-6.0292e-06 	-2.29218e-07 30.0003 	-6.0292e-06 	-2.29218e-07 30.0003 	-6.02919e-06 	-2.29218e-07 30.0002 	-1.79998e-07 	-6.42163e-07 30.0003 	-6.05243e-06 	-2.7618e-07 30.0003 	-6.05243e-06 	-2.7618e-07 30.0003 	-6.05243e-06 	-2.7618e-07 30.0003 	-6.05243e-06 	-2.7618e-07 30.0002 	-2.70855e-06 	-4.78977e-07 30.0003 	-6.07627e-06 	-3.19664e-07 30.0003 	-6.07627e-06 	-3.19664e-07 30.0003 	-6.07627e-06 	-3.19664e-07 30.0003 	-6.07627e-06 	-3.19663e-07 30.0002 	-2.74959e-06 	-5.34021e-07 30.0003 	-6.10062e-06 	-3.61186e-07 30.0003 	-6.10061e-06 	-3.61186e-07 30.0003 	-6.10061e-06 	-3.61186e-07 30.0003 	-6.10061e-06 	-3.61186e-07 30.0002 	-1.81744e-07 	-8.03799e-07 30.0003 	-6.12466e-06 	-4.01381e-07 30.0003 	-6.12466e-06 	-4.01381e-07 30.0003 	-6.12465e-06 	-4.01381e-07 30.0003 	-6.12465e-06 	-4.0138e-07 30.0001 	-1.82287e-07 	-8.53116e-07 30.0003 	-6.14803e-06 	-4.40374e-07 30.0003 	-6.14803e-06 	-4.40374e-07 30.0003 	-6.14803e-06 	-4.40374e-07 30.0003 	-6.14803e-06 	-4.40374e-07 30.0001 	-1.82811e-07 	-9.00325e-07 30.0003 	-6.17067e-06 	-4.77998e-07 30.0003 	-6.17067e-06 	-4.77998e-07 30.0003 	-6.17067e-06 	-4.77998e-07 30.0003 	-6.17066e-06 	-4.77998e-07 30.0001 	-2.90907e-06 	-7.31453e-07 30.0003 	-6.19244e-06 	-5.14215e-07 30.0003 	-6.19244e-06 	-5.14215e-07 30.0003 	-6.19244e-06 	-5.14214e-07 30.0003 	-6.19244e-06 	-5.14214e-07 30.0001 	-2.94695e-06 	-7.75579e-07 30.0003 	-6.21345e-06 	-5.4883e-07 30.0003 	-6.21345e-06 	-5.4883e-07 30.0003 	-6.21345e-06 	-5.4883e-07 30.0003 	-6.21345e-06 	-5.48829e-07 30.0001 	-1.84341e-07 	-1.02953e-06 30.0003 	-6.2336e-06 	-5.8204e-07 30.0003 	-6.2336e-06 	-5.8204e-07 30.0003 	-6.2336e-06 	-5.82039e-07 30.0003 	-6.23359e-06 	-5.82039e-07 30.0001 	-3.01996e-06 	-8.57467e-07 30.0003 	-6.25285e-06 	-6.13885e-07 30.0003 	-6.25285e-06 	-6.13885e-07 30.0003 	-6.25285e-06 	-6.13885e-07 30.0003 	-6.25285e-06 	-6.13885e-07 30.0001 	-3.05506e-06 	-8.95475e-07 30.0003 	-6.27135e-06 	-6.44412e-07 30.0003 	-6.27134e-06 	-6.44411e-07 30.0003 	-6.27134e-06 	-6.44411e-07 30.0003 	-6.27134e-06 	-6.44411e-07 30.0001 	-1.85775e-07 	-1.14084e-06 30.0003 	-6.2892e-06 	-6.73611e-07 30.0003 	-6.2892e-06 	-6.73611e-07 30.0003 	-6.2892e-06 	-6.73611e-07 30.0003 	-6.28919e-06 	-6.73611e-07 30.0001 	-1.86245e-07 	-1.1746e-06 30.0003 	-6.3062e-06 	-7.01429e-07 30.0003 	-6.3062e-06 	-7.01428e-07 30.0003 	-6.3062e-06 	-7.01428e-07 30.0003 	-6.3062e-06 	-7.01428e-07 30.0001 	-1.86691e-07 	-1.20668e-06 30.0003 	-6.32228e-06 	-7.27864e-07 30.0003 	-6.32227e-06 	-7.27864e-07 30.0003 	-6.32227e-06 	-7.27863e-07 30.0003 	-6.32227e-06 	-7.27863e-07 30.0001 	-3.18652e-06 	-1.031e-06 30.0003 	-6.33753e-06 	-7.52975e-07 30.0003 	-6.33753e-06 	-7.52974e-07 30.0003 	-6.33752e-06 	-7.52974e-07 30.0003 	-6.33752e-06 	-7.52974e-07 30.0001 	-1.87551e-07 	-1.26596e-06 30.0003 	-6.35206e-06 	-7.76943e-07 30.0003 	-6.35206e-06 	-7.76942e-07 30.0003 	-6.35206e-06 	-7.76942e-07 30.0003 	-6.35206e-06 	-7.76942e-07 30.0001 	-1.87976e-07 	-1.29332e-06 30.0003 	-6.36586e-06 	-7.99814e-07 30.0003 	-6.36586e-06 	-7.99814e-07 30.0003 	-6.36585e-06 	-7.99814e-07 30.0003 	-6.36585e-06 	-7.99813e-07 30.0001 	-3.27592e-06 	-1.11605e-06 30.0003 	-6.37892e-06 	-8.21546e-07 30.0003 	-6.37892e-06 	-8.21546e-07 30.0003 	-6.37892e-06 	-8.21546e-07 30.0003 	-6.37892e-06 	-8.21545e-07 30.0001 	-3.30404e-06 	-1.14153e-06 30.0003 	-6.39131e-06 	-8.41979e-07 30.0003 	-6.3913e-06 	-8.41979e-07 30.0003 	-6.3913e-06 	-8.41979e-07 30.0003 	-6.3913e-06 	-8.41979e-07 30.0001 	-1.89182e-07 	-1.36686e-06 30.0003 	-6.40294e-06 	-8.61376e-07 30.0003 	-6.40294e-06 	-8.61375e-07 30.0003 	-6.40294e-06 	-8.61375e-07 30.0003 	-6.40293e-06 	-8.61375e-07 30.0001 	-1.8957e-07 	-1.38874e-06 30.0003 	-6.41387e-06 	-8.79815e-07 30.0003 	-6.41387e-06 	-8.79815e-07 30.0003 	-6.41386e-06 	-8.79814e-07 30.0003 	-6.41386e-06 	-8.79814e-07 30.0001 	-1.89947e-07 	-1.40939e-06 30.0003 	-6.42411e-06 	-8.97303e-07 30.0003 	-6.4241e-06 	-8.97303e-07 30.0003 	-6.4241e-06 	-8.97303e-07 30.0003 	-6.4241e-06 	-8.97302e-07 30.0001 	-3.40838e-06 	-1.23053e-06 30.0003 	-6.43367e-06 	-9.13891e-07 30.0003 	-6.43367e-06 	-9.1389e-07 30.0003 	-6.43366e-06 	-9.1389e-07 30.0003 	-6.43366e-06 	-9.1389e-07 30.0001 	-3.43252e-06 	-1.24985e-06 30.0003 	-6.44266e-06 	-9.29575e-07 30.0003 	-6.44266e-06 	-9.29575e-07 30.0003 	-6.44265e-06 	-9.29574e-07 30.0003 	-6.44265e-06 	-9.29574e-07 30.0001 	-1.91082e-07 	-1.46456e-06 30.0003 	-6.451e-06 	-9.44424e-07 30.0003 	-6.451e-06 	-9.44424e-07 30.0003 	-6.451e-06 	-9.44424e-07 30.0003 	-6.45099e-06 	-9.44423e-07 30.0001 	-3.47865e-06 	-1.28534e-06 30.0003 	-6.45868e-06 	-9.58433e-07 30.0003 	-6.45868e-06 	-9.58433e-07 30.0003 	-6.45867e-06 	-9.58432e-07 30.0003 	-6.45867e-06 	-9.58432e-07 30.0001 	-3.50072e-06 	-1.30161e-06 30.0003 	-6.46577e-06 	-9.71727e-07 30.0003 	-6.46577e-06 	-9.71727e-07 30.0003 	-6.46577e-06 	-9.71726e-07 30.0003 	-6.46577e-06 	-9.71726e-07 30.0001 	-