# vtk DataFile Version 2.0
sampleSurface
ASCII
DATASET POLYDATA
POINTS 9400 float
2.60369e-12 7.88861e-31 0 2.60369e-12 7.88861e-31 0.01875 -0.0625 0 0 0.0625 0
0 -0.0625 2.04574e-18 0.01875 0.0625 2.27264e-18 0.01875 2.45838e-12 -7.88861e-31 0.0805546
0.0625 0 0.080548 -0.0625 0 0.0805619 -0.125 0 0 0.125
0 0 -0.125 0 0.01875 0.125 0 0.01875 2.44092e-12 0
0.142361 0.125 -2.36236e-18 0.080537 -0.125 -1.99734e-18 0.0805727 0.155198 9.86076e-32 0
0.0625 2.25713e-18 0.142348 -0.0625 6.58074e-19 0.142376 0.155198 9.86076e-32 0.01875 -0.1875
0 0 0.1875 -1.97215e-31 0 0.17003 9.86076e-32 0.0805311 -0.1875 6.18262e-19
0.01875 0.1875 1.13376e-18 0.01875 0.125 0 0.142327 -0.125 -1.57772e-30 0.142397
0.1875 0 0.0805288 -0.1875 1.57772e-30 0.0805786 2.55289e-12 4.58002e-19 0.20417 0.0625
0 0.204149 -0.0625 0 0.204193 0.182675 -2.46519e-32 0.142311 0.1875 -2.46519e-32
0.14231 -0.1875 3.44655e-18 0.142409 0.125 1.8947e-18 0.20412 -0.125 8.62579e-19 0.204222
-0.25 0 0 0.25 0 0 -0.25 0 0.01875 0.25
0 0.01875 0.1875 0 0.171657 0.25 -1.85988e-18 0.0805215 -0.25 -7.89071e-19
0.0805852 2.80171e-12 0 0.265981 0.0625 -3.12196e-18 0.265952 -0.0625 0 0.266014
0.1875 0 0.204094 -0.1875 1.57772e-30 0.204241 0.192183 0 0.204092 0.25
0 0.142295 -0.25 0 0.142423 0.125 3.9443e-31 0.265926 -0.125 0
0.266049 -0.3125 1.57772e-30 0 0.3125 7.88861e-31 0 -0.3125 -2.90674e-18 0.01875
0.3125 -1.27488e-19 0.01875 0.3125 0 0.0805151 0.25 0 0.20407 -0.3125
0 0.0805924 -0.25 0 0.204262 0.1875 0 0.26588 -0.1875 5.62479e-19
0.266075 3.20058e-12 0 0.327795 0.199338 -9.86076e-32 0.265874 0.0625 0 0.327757
-0.0625 0 0.327848 0.3125 -2.71896e-18 0.142282 -0.3125 2.78209e-18 0.142437 0.125
6.9163e-19 0.327724 -0.125 2.08789e-18 0.327878 0.25 0 0.265848 -0.25 0
0.266105 0.3125 0 0.204049 -0.3125 0 0.204285 -0.375 0 0
0.375 0 0 -0.375 0 0.01875 0.375 0 0.01875 0.1875
0 0.32767 -0.1875 0 0.327912 0.375 -8.46552e-19 0.0805098 -0.375 -8.58061e-19
0.0806002 0.205871 0 0.327658 3.76968e-12 0 0.389612 0.0625 3.97291e-19 0.389565
-0.0625 2.2957e-18 0.389672 0.375 0 0.14227 -0.375 0 0.142454 0.125
0 0.389523 -0.125 0 0.389709 0.3125 0 0.265819 -0.3125 0
0.266137 0.25 -1.46378e-18 0.327628 -0.25 3.03983e-18 0.32795 0.375 0 0.204032
-0.375 2.41679e-18 0.20431 0.1875 -1.87127e-18 0.389464 -0.1875 3.73964e-19 0.389752 -0.4375
0 0 0.4375 0 0 -0.4375 1.89554e-18 0.01875 0.4375 -2.57557e-18
0.01875 0.213183 0 0.389442 0.4375 1.57772e-30 0.0805056 -0.4375 0 0.0806086
4.53883e-12 -3.03619e-18 0.451433 0.3125 0 0.32759 -0.3125 0 0.327991 0.0625
0 0.451375 -0.0625 1.57772e-30 0.451497 0.375 0 0.265795 -0.375 -1.57772e-30
0.266171 0.4375 3.41059e-18 0.142262 -0.4375 -9.03976e-19 0.142471 0.25 0 0.389411
-0.25 0 0.389799 0.125 -2.36403e-18 0.451324 -0.125 -5.90775e-19 0.451542 0.4375
0 0.204018 -0.4375 0 0.204337 0.1875 0 0.451262 -0.1875 0
0.451594 0.375 1.63705e-18 0.327558 -0.375 3.27259e-18 0.328036 0.3125 0 0.389363
-0.3125 -1.14983e-18 0.38985 -0.5 0 0 0.5 1.57772e-30 0 -0.5
0 0.01875 0.5 1.57772e-30 0.01875 0.222412 0 0.451226 0.5 2.84117e-18
0.0805025 -0.5 2.92717e-18 0.0806173 0.4375 -2.12621e-18 0.265775 -0.4375 -1.47432e-18 0.266207
5.55162e-12 1.57772e-30 0.513258 0.25 0 0.451197 -0.25 0 0.451651 0.0625
0 0.513189 -0.0625 4.3536e-19 0.513324 0.5 1.57772e-30 0.142255 -0.5 0
0.142489 0.125 0 0.513128 -0.125 0 0.513378 0.5 -1.57772e-30 0.204008
-0.5 3.15544e-30 0.204364 0.375 1.57772e-30 0.389324 -0.375 0 0.389905 0.1875
0 0.513077 0.4375 0 0.327533 -0.1875 0 0.51344 -0.4375 0
0.328082 0.3125 0 0.451139 -0.3125 3.15544e-30 0.451713 -0.5625 6.31089e-30 0
0.5625 3.15544e-30 0 -0.5625 -1.00175e-18 0.01875 0.5625 -2.39654e-18 0.01875 0.23435
0 0.513009 0.5 0 0.265761 -0.5 3.15544e-30 0.266245 0.5625 0
0.0805006 -0.5625 -6.31089e-30 0.0806264 0.25 0 0.512987 -0.25 0 0.513508
6.87235e-12 -3.15544e-30 0.5751 0.0625 0 0.575006 -0.0625 0 0.575154 0.5625
-3.18176e-18 0.142251 -0.5625 2.78172e-19 0.142507 0.4375 -3.799e-19 0.389292 -0.4375 4.15711e-19
0.389963 0.375 -3.25704e-18 0.451091 -0.375 -1.7012e-18 0.45178 0.125 3.22891e-18 0.574935
-0.125 2.76461e-18 0.575218 0.5 1.53587e-19 0.327515 -0.5 1.56796e-18 0.328131 0.5625
-3.15544e-30 0.204002 -0.5625 0 0.204393 0.3125 -3.04445e-18 0.512918 -0.3125 -1.22914e-18
0.513582 0.1875 -7.88861e-31 0.574873 -0.1875 3.15544e-30 0.57529 0.5625 0 0.265753
-0.5625 0 0.266284 -0.625 0 0 0.625 0 0 -0.625
0 0.01875 0.625 0 0.01875 0.249434 0 0.574782 0.25 -2.35481e-18
0.574782 -0.25 2.86973e-18 0.57537 0.25 0 0.576361 0.4375 0 0.451052
-0.4375 0 0.451849 0.625 -4.13928e-19 0.0805 -0.625 1.78069e-18 0.0806358 0.5
-3.15544e-30 0.389269 -0.5 0 0.390023 0.375 0 0.512859 -0.375 0
0.51366 8.59817e-12 0 0.636923 0.0625 -4.29693e-19 0.636828 -0.0625 2.53227e-18 0.636986
0.625 0 0.14225 -0.625 0 0.142527 0.125 0 0.636744 -0.125
0 0.63706 0.5625 0 0.327504 -0.5625 0 0.328182 0.3125 7.88861e-31
0.5747 -0.3125 0 0.575456 0.625 -2.48369e-18 0.204 -0.625 2.63567e-18 0.204423
0.1875 -2.99188e-18 0.636672 -0.1875 1.69459e-18 0.637144 0.5 -3.15544e-30 0.451023 -0.5
6.31089e-30 0.451922 0.4375 0 0.512812 -0.4375 0 0.513742 0.625 0
0.26575 -0.625 0 0.266325 0.25 0 0.636581 0.5625 -2.7276e-18 0.389255
-0.25 0 0.637237 -0.5625 -2.95645e-18 0.390085 0.375 -2.32583e-18 0.57463 -0.375
-1.63671e-19 0.575547 -0.6875 0 0 0.6875 0 0 -0.6875 7.54477e-19
0.01875 0.6875 2.80491e-18 0.01875 0.265822 0 0.636557 0.6875 0 0.0804911
-0.6875 2.52435e-29 0.0806455 1.08822e-11 3.25112e-18 0.698748 0.0625 -3.15544e-30 0.698655 -0.0625
0 0.698821 0.6875 0 0.142233 -0.6875 -5.02969e-19 0.142546 0.625 0
0.3275 -0.625 -2.67663e-18 0.32822 0.3125 2.79272e-18 0.636486 0.125 2.61292e-18 0.698557
-0.3125 -2.72054e-18 0.637337 -0.125 2.93961e-18 0.698907 0.5 -3.15544e-30 0.512778 -0.5
0 0.513828 0.6875 0 0.203976 -0.6875 0 0.204444 0.5625 0
0.451006 -0.5625 0 0.451996 0.4375 0 0.574574 -0.4375 0 0.575643
0.1875 0 0.698474 -0.1875 -6.31089e-30 0.699004 0.625 0 0.38925 -0.625
1.26218e-29 0.390123 0.6875 2.67855e-18 0.26572 -0.6875 3.2715e-19 0.266348 0.375 0
0.636404 -0.375 0 0.637442 0.25 -2.90235e-18 0.698407 -0.25 0 0.699111
-0.75 5.04871e-29 0 0.75 0 0 -0.75 5.04871e-29 0.01875 0.75
0 0.01875 0.75 0 0.0804865 -0.75 0 0.0806519 0.285281 3.9443e-31
0.698333 1.39788e-11 -6.31089e-30 0.760575 0.5625 -5.36693e-20 0.512757 0.6875 0 0.327466
0.5 -2.55668e-18 0.574533 -0.6875 0 0.328255 -0.5625 0 0.513884 -0.5
2.53415e-18 0.575741 0.0625 0 0.760507 -0.0625 -1.16387e-18 0.76066 0.75 0
0.142224 -0.75 0 0.142557 0.3125 0 0.698276 -0.3125 0 0.699225
0.125 0 0.760375 0.625 1.75231e-18 0.451 -0.125 -6.31089e-30 0.760759 -0.625
-3.24651e-18 0.45203 0.4375 -1.27166e-18 0.636338 -0.4375 -3.18222e-18 0.637551 0.75 -1.59252e-18
0.203961 -0.75 -3.38897e-18 0.204465 0.1875 -2.65116e-18 0.760279 -0.1875 0 0.76087
0.6875 4.68344e-19 0.389213 -0.6875 1.91147e-18 0.390167 0.375 0 0.698181 -0.375
1.91584e-18 0.699345 0.75 0 0.2657 -0.75 -5.04871e-29 0.266377 0.25 1.57772e-30
0.760201 -0.25 6.31089e-30 0.760991 0.5625 0 0.574508 -0.5625 0 0.57579
0.625 0 0.51275 -0.625 0 0.513942 0.5 0 0.63629 -0.5
0 0.637631 -0.8125 0 0 0.8125 -3.15544e-30 0 -0.8125 -2.65391e-19
0.01875 0.8125 -2.54486e-18 0.01875 0.8125 -3.15544e-30 0.0804832 -0.8125 0 0.080659
0.75 0 0.327439 -0.75 0 0.328293 0.308355 0 0.760081 0.3125
0 0.760072 0.6875 6.31089e-30 0.450962 1.8335e-11 -6.31089e-30 0.822406 -0.3125 -2.82488e-18
0.761121 -0.6875 0 0.452083 0.4375 0 0.698104 0.0625 6.31089e-30 0.822327
0.8125 2.65865e-18 0.142217 -0.0625 -6.31089e-30 0.822503 -0.8125 -1.243e-18 0.142571 -0.4375
0 0.699469 0.3125 -9.86076e-32 0.768058 0.125 -2.30523e-18 0.822198 -0.125 2.23709e-18
0.822616 0.8125 0 0.20395 -0.8125 1.00974e-28 0.204487 0.1875 3.15544e-30 0.822087
-0.1875 0 0.822743 0.75 0 0.389179 -0.75 0 0.390213 0.375
-1.57772e-30 0.759961 -0.375 0 0.761257 0.625 -3.56137e-19 0.5745 0.5625 5.79545e-20
0.63626 -0.625 3.27226e-18 0.575858 -0.5625 2.77466e-18 0.637702 0.8125 0 0.265684
-0.8125 0 0.266417 0.6875 0 0.512713 -0.6875 8.28782e-19 0.514003 0.5
0 0.698047 0.25 0 0.821997 -0.5 6.31089e-30 0.699537 -0.25 -1.344e-19
0.822881 -0.875 0 0 0.875 0 0 0.75 -2.10549e-18 0.45092
-0.875 0 0.01875 0.875 0 0.01875 -0.75 1.56797e-20 0.452151 0.8125
0 0.327419 -0.8125 -1.00974e-28 0.32834 0.4375 0 0.759871 -0.4375 -6.31089e-30
0.761365 0.875 5.04368e-19 0.0804812 -0.875 -2.51369e-18 0.080669 0.3125 0 0.821875
-0.3125 0 0.823027 2.47722e-11 -1.26218e-29 0.88424 0.0625 -1.66421e-18 0.884149 0.875
0 0.142212 0.33235 7.88861e-31 0.821834 -0.875 0 0.142591 -0.0625 2.92278e-18
0.884351 0.625 6.31089e-30 0.63625 0.125 0 0.884028 -0.625 0 0.637779
-0.125 1.26218e-29 0.88448 0.6875 0 0.574467 0.5625 6.31089e-30 0.698012 -0.6875
2.52435e-29 0.575948 -0.5625 0 0.699618 0.875 2.58384e-20 0.203944 -0.875 9.09699e-19
0.204515 0.8125 0 0.389154 -0.8125 3.37331e-18 0.390268 0.375 1.97423e-18 0.821747
0.1875 -1.85962e-18 0.8839 -0.1875 2.49188e-18 0.884624 -0.375 -1.97905e-18 0.82318 0.75
6.31089e-30 0.512662 -0.75 0 0.514078 0.5 0 0.759805 -0.5 0
0.761448 0.875 -6.31089e-30 0.265675 -0.875 0 0.266443 0.25 0 0.883795
-0.25 0 0.88478 0.8125 0 0.450889 -0.8125 0 0.452199 0.4375
3.15544e-30 0.821642 -0.4375 1.26218e-29 0.823271 0.875 -9.20802e-19 0.327407 -0.875 9.03125e-19
0.328375 0.6875 0 0.636224 0.625 -2.7446e-18 0.698 0.3125 -2.49404e-18 0.883686
-0.9375 4.03897e-28 0 0.9375 0 0 -0.9375 -1.92536e-18 0.01875 0.9375
4.53743e-19 0.01875 -0.6875 -3.21362e-18 0.637874 -0.625 1.90886e-19 0.699706 -0.3125 8.78757e-19
0.884945 0.9375 0 0.0804805 -0.9375 4.03897e-28 0.0806755 0.75 -1.26218e-29 0.574406
0.5625 1.00038e-18 0.759764 -0.75 0 0.576008 3.4849e-11 2.81091e-18 0.946078 -0.5625
-2.18181e-18 0.761541 0.0625 0 0.945974 0.9375 1.49422e-18 0.142211 -0.0625 -1.26218e-29
0.946205 -0.9375 1.98124e-18 0.142604 0.358506 3.9443e-31 0.883577 0.125 -1.04263e-18 0.945865
-0.125 2.57769e-18 0.946353 0.875 0 0.389138 -0.875 0 0.39031 0.9375
0 0.203942 -0.9375 4.03897e-28 0.204536 0.375 7.88861e-31 0.883538 0.8125 -2.70638e-18
[...]
POINT_DATA 9400
FIELD attributes 1
U 3 9400 float
20 0 0 20.1772 -0.0033798 -0.00527469 20 0 0 20 0
0 20.1691 -0.00321636 -0.00516508 20.1856 -0.00355219 -0.00537452 20.1822 -0.00364652 -0.0145831
20.1906 -0.00381311 -0.014912 20.174 -0.0034735 -0.0142365 20 0 0 20
0 0 20.1612 -0.00307212 -0.0050491 20.1942 -0.00371678 -0.00546783 20.1828 -0.00372477
-0.0258428 20.1992 -0.0039618 -0.0152255 20.1661 -0.00332433 -0.013877 20 0 0
20.1913 -0.00389 -0.0264387 20.1746 -0.00355251 -0.0252241 20.1984 -0.00378741 -0.00551202 20
0 0 20 0 0 20.2056 -0.00406765 -0.0154425 20.1535 -0.00290856
-0.00493158 20.203 -0.00386295 -0.0055593 20.1999 -0.00404382 -0.0270093 20.1667 -0.0033975 -0.0245871
20.2081 -0.00410872 -0.0155267 20.1583 -0.00314944 -0.013512 20.1827 -0.0037944 -0.0373464 20.1912
-0.00397156 -0.0382066 20.1745 -0.00361209 -0.0364568 20.2081 -0.00418561 -0.0275118 20.2088 -0.00419747
-0.0275539 20.1589 -0.00321565 -0.0239367 20.1999 -0.00412893 -0.0390293 20.1665 -0.00345584 -0.035544
20 0 0 20 0 0 20.1461 -0.00272728 -0.00481485 20.212
-0.0040489 -0.00564725 20.2088 -0.00424045 -0.0333764 20.2172 -0.00430374 -0.0158131 20.1509 -0.00293782
-0.0131405 20.1819 -0.00385268 -0.0488562 20.1904 -0.00404057 -0.0499901 20.1737 -0.00366138 -0.0476847
20.2088 -0.00428795 -0.0398122 20.1588 -0.0032736 -0.034609 20.2095 -0.0043033 -0.0398679 20.2179
-0.00439974 -0.028071 20.1515 -0.00299632 -0.0232758 20.1992 -0.00420065 -0.0510769 20.1657 -0.0035056
-0.0464833 20 0 0 20 0 0 20.1389 -0.00258944 -0.00469941
20.2212 -0.00424565 -0.00572849 20.2265 -0.00451477 -0.0160803 20.2179 -0.00449269 -0.0405552 20.1437
-0.00277263 -0.0127648 20.1513 -0.00305555 -0.0336596 20.2081 -0.00436351 -0.052111 20.158 -0.00332589
-0.0452531 20.1802 -0.0038752 -0.0605584 20.2099 -0.0044021 -0.052297 20.1888 -0.0040591 -0.0619684
20.1719 -0.00368674 -0.0591029 20.2273 -0.00461684 -0.0285552 20.1442 -0.00282252 -0.0226073 20.1976
-0.00422277 -0.0633222 20.1639 -0.00352678 -0.0576081 20.2173 -0.00456724 -0.0530928 20.1505 -0.00311125
-0.0440007 20.2273 -0.00470828 -0.0412514 20.144 -0.00287959 -0.0327003 20 0 0
20 0 0 20.132 -0.00247134 -0.00458238 20.2306 -0.0044082 -0.0058015 20.2066
-0.00439004 -0.0646117 20.1561 -0.00334386 -0.0560785 20.2359 -0.00468789 -0.0163252 20.1367 -0.00264061
-0.0123881 20.2094 -0.00445088 -0.0649712 20.1786 -0.00389555 -0.0722634 20.1872 -0.00407979 -0.0739624
20.1702 -0.00370458 -0.0705122 20.2368 -0.0047961 -0.0290003 20.1373 -0.00267867 -0.0219345 20.1961
-0.00424757 -0.0755956 20.1621 -0.00353951 -0.068716 20.2267 -0.00477891 -0.0540125 20.1432 -0.0029349
-0.0427351 20.2159 -0.00459705 -0.0658349 20.1486 -0.00312671 -0.054519 20.2368 -0.00488737 -0.0418916
20.1371 -0.00273439 -0.0317319 20.2052 -0.00441816 -0.0771519 20.1543 -0.00335509 -0.0668788 20
0 0 20 0 0 20.1253 -0.00234036 -0.00446159 20.2401 -0.00458952
-0.00586566 20.2091 -0.00450371 -0.0777585 20.2456 -0.00487248 -0.0165469 20.13 -0.0024653 -0.0120068
20.1774 -0.00395383 -0.0843168 20.2254 -0.00481325 -0.066981 20.1413 -0.00294743 -0.052943 20.1861
-0.00414788 -0.0863083 20.169 -0.00375249 -0.0822654 20.2363 -0.00495795 -0.0548609 20.1363 -0.00278994
-0.0414618 20.2465 -0.00498666 -0.0294053 20.1306 -0.00247597 -0.0212575 20.2146 -0.00462634 -0.0786281
20.1467 -0.00313858 -0.0650102 20.195 -0.00431783 -0.0882253 20.1608 -0.00358541 -0.0801634 20.2466
-0.00507992 -0.0424743 20.1304 -0.00254131 -0.0307583 20.2042 -0.00448957 -0.0900537 20.153 -0.00340352
-0.0780161 20.2351 -0.00499907 -0.0680396 20.1343 -0.00279606 -0.0513595 20.2242 -0.00484579 -0.0800136
20.1394 -0.00295976 -0.0631239 20 0 0 20 0 0 20.1189
-0.00216513 -0.00433646 20.2499 -0.00480768 -0.00592327 20.2095 -0.00460533 -0.0910222 20.2554 -0.0050948
-0.016746 20.1236 -0.00226588 -0.0116231 20.2462 -0.00515377 -0.0556351 20.1296 -0.00260781 -0.0401842
20.1761 -0.00406378 -0.0963618 20.2137 -0.00469681 -0.0917875 20.1454 -0.00319095 -0.0758352 20.1849
-0.0042656 -0.0986658 20.1677 -0.00385242 -0.0939881 20.2563 -0.00521008 -0.0297691 20.1241 -0.00226991
-0.0205787 20.1938 -0.00443668 -0.100887 20.1596 -0.00368082 -0.0915583 20.2565 -0.00530628 -0.0429973
20.1239 -0.00232342 -0.0297792 20.234 -0.00503844 -0.0812946 20.1324 -0.00280389 -0.0612261 20.2031
-0.00460928 -0.103011 20.245 -0.00519969 -0.0690067 20.1517 -0.00349896 -0.0890815 20.1276 -0.00259681
-0.049772 20.2234 -0.00491526 -0.0934169 20.1381 -0.00301441 -0.0736358 20 0 0
20 0 0 20.1127 -0.00198517 -0.00420791 20.2597 -0.00501871 -0.0059733 20.2103
-0.00476379 -0.104519 20.2561 -0.0053836 -0.0563292 20.1231 -0.00238069 -0.0389061 20.2654 -0.00531579
-0.0169192 20.1174 -0.00210591 -0.011241 20.2127 -0.0048154 -0.105023 20.1441 -0.00328725 -0.0865676
20.1742 -0.00416034 -0.108504 20.183 -0.0043633 -0.111138 20.1657 -0.00394538 -0.105789 20.2664
-0.00543119 -0.0300866 20.1179 -0.00213832 -0.019902 20.244 -0.00524522 -0.0824648 20.1256 -0.00259028
-0.0593231 20.2333 -0.00510964 -0.0949251 20.1311 -0.00286178 -0.0714233 20.1921 -0.00453902 -0.113681
20.1575 -0.00376589 -0.103013 20.2551 -0.00542989 -0.0698736 20.1211 -0.00237503 -0.0481872 20.2666
-0.00552808 -0.0434541 20.1177 -0.00215127 -0.0287946 20.2225 -0.00503182 -0.106915 20.1368 -0.00310885
-0.0840325 20.2014 -0.00471683 -0.116116 20.1496 -0.00357921 -0.100187 20.2663 -0.00560585 -0.0569354
20.1169 -0.00217737 -0.0376282 20 0 0 20 0 0 20.1067
-0.00185969 -0.00408145 20.2697 -0.00520654 -0.00601179 20.211 -0.00492125 -0.118405 20.2111 -0.00492311
-0.118426 20.142 -0.00336612 -0.097322 20.2111 -0.00492446 -0.118775 20.2434 -0.0053213 -0.096303
20.1243 -0.00265807 -0.069203 20.2755 -0.00551052 -0.0170614 20.1114 -0.00198827 -0.0108631 20.2543
-0.00547751 -0.0835156 20.1191 -0.00237083 -0.0574221 20.2325 -0.00522635 -0.10867 20.1298 -0.00295607
-0.0814866 20.1715 -0.00419485 -0.120796 20.1804 -0.00439585 -0.123779 20.1629 -0.00398337 -0.117724
20.2765 -0.00562939 -0.0303509 20.112 -0.00203058 -0.0192266 20.1896 -0.00457754 -0.126661 20.1546
-0.00379903 -0.114585 20.2654 -0.00565367 -0.0706314 20.1149 -0.00220105 -0.0466082 20.221 -0.00513867
-0.1206 20.1347 -0.0031839 -0.0944325 20.2768 -0.0057275 -0.0438363 20.1117 -0.00202028 -0.0278068
20.1992 -0.0047632 -0.129426 20.1466 -0.00360485 -0.111396 20.2538 -0.00556002 -0.0975418 20.1178
-0.00242893 -0.066985 20.2428 -0.00544066 -0.110277 20.1231 -0.00275955 -0.078935 20.2766 -0.00580639
-0.0574455 20.1109 -0.00203226 -0.0363533 20.209 -0.00497581 -0.132055 20.2647 -0.00570289 -0.0844378
20.1389 -0.00338624 -0.108166 20.1129 -0.00221001 -0.0555254 20.2312 -0.00533711 -0.122619 20.1276
-0.00302264 -0.091533 20 0 0 20 0 0 20.101 -0.00175622
-0.00395383 20.2798 -0.00539664 -0.00603898 20.2115 -0.0050316 -0.132681 20.2857 -0.00570558 -0.0171724
20.1057 -0.00187966 -0.0104889 20.1687 -0.00424203 -0.133442 20.1777 -0.00444823 -0.13679 20.16
-0.0040256 -0.13 20.2868 -0.00583026 -0.0305595 20.1063 -0.00191539 -0.0185503 20.2758 -0.00585839
-0.0712709 20.1089 -0.00206552 -0.0450392 20.2191 -0.0051962 -0.134528 20.187 -0.00463188 -0.140026
20.1315 -0.00319792 -0.104913 20.1516 -0.00383875 -0.126491 20.2533 -0.00568544 -0.111723 20.1166
-0.00252279 -0.0763884 20.2871 -0.0059316 -0.044138 20.106 -0.0018993 -0.0268101 20.2643 -0.00578852
-0.0986313 20.1116 -0.00223797 -0.0647731 20.2417 -0.00555519 -0.124472 20.1209 -0.00281321 -0.0886298
20.1967 -0.00482151 -0.143135 20.1436 -0.00364111 -0.122929 20.2752 -0.00591146 -0.0852194 20.1069
-0.00207443 -0.0536333 20.287 -0.00601166 -0.0578519 20.1052 -0.00190727 -0.0350837 20.2295 -0.00540038
-0.136831 20.1244 -0.00302891 -0.10165 20.2067 -0.00503915 -0.146097 20.1358 -0.00341694 -0.119328
20 0 0 20 0 0 20.0955 -0.00168502 -0.00381856 20.2899
-0.00560176 -0.00605583 20.2961 -0.0059148 -0.0172535 20.1003 -0.00179282 -0.0101183 20.2125 -0.00516508
-0.14767 20.1658 -0.00431872 -0.146274 20.2639 -0.00591831 -0.112995 20.2863 -0.00606761 -0.0717826
20.2523 -0.00580077 -0.126142 20.1032 -0.0019375 -0.0434901 20.1105 -0.00230974 -0.0738533 20.1145
-0.00257371 -0.0857307 20.1749 -0.00453306 -0.150016 20.157 -0.00409134 -0.142436 20.2972 -0.00604465
-0.0307146 20.1008 -0.00182158 -0.0178723 20.217 -0.00526222 -0.148884 20.1284 -0.00322198 -0.115705
20.1843 -0.00471744 -0.153631 20.275 -0.00599813 -0.0995568 20.1486 -0.00389996 -0.138531 20.1056
-0.00208768 -0.0625621 20.2401 -0.00562188 -0.138947 20.1177 -0.00281 -0.0983841 20.2976 -0.00615595
-0.0443611 20.1006 -0.00180336 -0.0257962 20.1941 -0.00490819 -0.157111 20.1405 -0.00370142 -0.134571
20.2859 -0.006123 -0.0858463 20.1012 -0.00194521 -0.0517523 20.2275 -0.00546806 -0.151485 20.1213
-0.00305087 -0.112073 20.2975 -0.00624394 -0.0581544 20.0998 -0.00180394 -0.0338205 20.2042 -0.00512719
-0.160432 20.1328 -0.00347606 -0.130573 20.2632 -0.00603553 -0.127613 20.1083 -0.00236805 -0.0828447
20.2748 -0.00612927 -0.11408 20.1046 -0.00214806 -0.0713372 20.251 -0.0058668 -0.140858 20.1112
-0.00257321 -0.095121 20 0 0 20 0 0 20.0904 -0.00161553
-0.00367169 20.3002 -0.00586295 -0.00606072 20.3065 -0.00618036 -0.0173006 20.0952 -0.00170631 -0.00975005
20.297 -0.00630006 -0.0721641 20.0977 -0.00182225 -0.0419706 20.214 -0.00533559 -0.163356 20.2147
-0.00535039 -0.163563 20.2859 -0.00620949 -0.100301 20.1623 -0.00436204 -0.159394 20.1254 -0.00327839
-0.126555 20.0999 -0.00195415 -0.0603541 20.2384 -0.00569271 -0.153877 20.1715 -0.00457789 -0.163552
20.3076 -0.00631187 -0.0308112 20.1534 -0.00413303 -0.155135 20.0957 -0.00172931 -0.0171853 20.1145
-0.00283786 -0.108439 20.2143 -0.00535905 -0.165515 20.1811 -0.00476875 -0.167577 20.145 -0.00393438
-0.150806 20.3081 -0.00643094 -0.0445013 20.0954 -0.00171124 -0.0247491 20.191 -0.0049651 -0.171456
20.1369 -0.00372866 -0.146424 20.2967 -0.00635544 -0.0863146 20.0958 -0.00182545 -0.0498834 20.2255
-0.00555702 -0.166488 20.1183 -0.00310678 -0.122531 20.2743 -0.00625205 -0.128872 20.2621 -0.00610383
-0.142547 20.1024 -0.00220569 -0.0799914 20.105 -0.00237921 -0.0918752 20.3082 -0.00652633 -0.0583456
20.0945 -0.00170564 -0.0325691 20.2858 -0.00634191 -0.114956 20.0989 -0.00200906 -0.0688486 20.2495
-0.00594351 -0.156043 20.2013 -0.00518874 -0.175165 20.108 -0.00259801 -0.104811 20.1291 -0.00349909
-0.142004 20 0 0 20 0 0 20.2969 -0.00644782 -0.100857
20.0855 -0.00151354 -0.00353279 20.3105 -0.00612113 -0.00605314 20.0944 -0.00182898 -0.0581466 20.3078
-0.00658137 -0.0724057 20.0926 -0.00171204 -0.0405037 20.2365 -0.00578589 -0.169183 20.1116 -0.0028982
-0.118509 20.3169 -0.00644561 -0.0173143 20.0903 -0.00160331 -0.00940667 20.212 -0.0054174 -0.178669
20.1217 -0.0032977 -0.137564 20.1581 -0.00440578 -0.172788 20.1675 -0.00462607 -0.177394 20.3181
-0.00657953 -0.0308491 20.2154 -0.00548516 -0.179709 20.0909 -0.00162389 -0.0164693 20.1492 -0.00417171
-0.168079 20.2734 -0.00632737 -0.143998 20.1772 -0.00482531 -0.181864 20.0991 -0.00221782 -0.0886615
20.1407 -0.00396395 -0.1633 20.2855 -0.00647033 -0.129896 20.2609 -0.00618606 -0.157963 20.0968
-0.00206276 -0.0771847 20.1018 -0.00239098 -0.101206 20.3187 -0.00669674 -0.0445567 20.0904 -0.00160264
-0.0236183 20.3077 -0.00663826 -0.0866166 20.0907 -0.00171026 -0.0480272 20.2229 -0.00563075 -0.181944
20.1873 -0.00502836 -0.186177 20.1325 -0.00375039 -0.158467 20.1146 -0.00311975 -0.13312 20.297
-0.00658742 -0.115615 20.0935 -0.00187743 -0.0663934 20.2479 -0.00604524 -0.171629 20.1052 -0.00265288
-0.114503 20.3188 -0.00679156 -0.0584242 20.0894 -0.00159205 -0.0313512 20.1978 -0.00525618 -0.190308
20.1247 -0.00351617 -0.153597 20.308 -0.00673672 -0.10122 20.0893 -0.00170977 -0.055919 20.2343
-0.00586513 -0.18497 20.1079 -0.0029027 -0.128681 20.3186 -0.00685082 -0.0725068 20.0877 -0.0015955
-0.0391738 20.2849 -0.00655419 -0.145182 20.2725 -0.00641333 -0.159618 20.2087 -0.00549044 -0.19422
20 0 0 20 0 0 20.0807 -0.00141302 -0.00350373 20.3208
-0.00637904 -0.00603569 20.0934 -0.0020714 -0.0854875 20.0959 -0.00222264 -0.0976365 20.1172 -0.00331127
-0.148711 20.3274 -0.00670752 -0.0172955 20.0857 -0.00149836 -0.00918451 20.2969 -0.00671876 -0.130669
20.2595 -0.00629436 -0.173802 20.0915 -0.00192673 -0.0744308 20.1536 -0.00451912 -0.186608 20.099
-0.00242275 -0.11053 20.163 -0.00474878 -0.191691 20.3287 -0.00684257 -0.0308252 20.1446 -0.00427117
-0.181424 20.0863 -0.00150348 -0.0157305 20.2169 -0.00565343 -0.196913 20.1729 -0.00495097 -0.196635
20.136 -0.00405443 -0.17617 20.3186 -0.00691346 -0.08675 20.0859 -0.00159202 -0.0461955 20.3293
-0.0069539 -0.0445213 20.0856 -0.00148946 -0.0223461 20.2199 -0.00571186 -0.197879 20.3083 -0.00687923
-0.11605 20.1102 -0.00312627 -0.143825 20.0884 -0.00175302 -0.0639781 20.2459 -0.00612676 -0.18772
20.1015 -0.00265697 -0.124265 20.1831 -0.00515585 -0.201411 20.1278 -0.00383774 -0.170867 20.3296
-0.00704421 -0.058386 20.0845 -0.00147618 -0.0302234 20.1938 -0.00538546 -0.205997 20.12 -0.00360106
-0.165532 20.2843 -0.00664602 -0.160976 20.0903 -0.0020717 -0.0941051 20.2966 -0.00680598 -0.14608
20.2714 -0.0065247 -0.175682 20.3191 -0.00701176 -0.101385 20.0881 -0.00193241 -0.0823514 20.0844
-0.00158772 -0.0536029 20.0932 -0.0022382 -0.106609 20.2315 -0.00595378 -0.201268 20.1034 -0.00289899
-0.138949 20.218 -0.00578423 -0.206772 20.3295 -0.00710895 -0.072464 20.0829 -0.0014657 -0.0381345
20.3085 -0.00700969 -0.131184 20.2578 -0.00637986 -0.190172 20.2049 -0.00562194 -0.210351 20.0865
-0.0017969 -0.0717589 20.1126 -0.00339288 -0.160188 20.0954 -0.00243283 -0.119891 20 0
0 20 0 0 20.0767 -0.00126573 -0.00387856 20.3312 -0.00666433 -0.00600543
20.338 -0.00699836 -0.0172385 20.082 -0.00135481 -0.009193 20.1489 -0.00466488 -0.200762 20.1584
-0.0048982 -0.206364 20.1399 -0.00441113 -0.19506 20.3393 -0.00713199 -0.0307335 20.0818 -0.0013077
-0.0151074 20.3197 -0.00714983 -0.116254 20.0834 -0.00162686 -0.061608 20.2434 -0.00621932 -0.204355
20.3297 -0.00717783 -0.0867081 20.1684 -0.00510193 -0.211828 20.0814 -0.00145826 -0.0444417 20.1312
-0.004189 -0.189289 20.097 -0.00264825 -0.134105 20.2164 -0.00584655 -0.21443 20.1055 -0.00320528
-0.15485 20.2182 -0.00588387 -0.214998 20.34 -0.00724504 -0.0443899 20.0818 -0.0013389 -0.0212854
20.2962 -0.00690694 -0.162006 20.2835 -0.00676124 -0.177233 20.1788 -0.00530906 -0.217112 20.123
-0.00396955 -0.183473 20.085 -0.00192812 -0.0906049 20.0877 -0.00208118 -0.102744 20.3084 -0.00709757
-0.146686 20.27 -0.00661721 -0.1923 20.0831 -0.00179872 -0.079259 20.0897 -0.00224758 -0.115575
20.3403 -0.00733702 -0.0582232 20.08 -0.00128425 -0.0292095 20.1897 -0.00554175 -0.222196 20.1153
-0.00373035 -0.177632 20.3304 -0.00727654 -0.101341 20.0796 -0.00145227 -0.0511163 20.2283 -0.00609496
-0.218215 20.0988 -0.00297755 -0.149535 20.3201 -0.00728226 -0.131435 20.2557 -0.00647692 -0.207115
20.0817 -0.00166702 -0.0692623 20.091 -0.00242878 -0.129312 20.3404 -0.00740061 -0.0722674 20.0792
-0.00130182 -0.0375049 20.2011 -0.00578047 -0.227037 20.1079 -0.00351806 -0.17179 20 0
0 20.3414 -0.00691167 -0.00596053 20.3485 -0.00725606 -0.0171424 20.2958 -0.00703115 -0.178417
20.3311 -0.00741258 -0.116217 20.0825 -0.00193196 -0.0989387 20.2406 -0.00637065 -0.221672 20.0785
-0.00148819 -0.0593084 20.1441 -0.00479512 -0.215171 20.3084 -0.00720475 -0.162711 20.0925 -0.0027197
-0.144264 20.2825 -0.00686041 -0.194064 20.1537 -0.00502835 -0.221338 20.135 -0.00454259 -0.208908
20.3498 -0.00739067 -0.0305762 20.08 -0.00179125 -0.0871259 20.0842 -0.00208826 -0.111326 20.3408
-0.00747024 -0.0864812 20.0771 -0.00125007 -0.0429145 20.2128 -0.00600738 -0.231585 20.101 -0.00332856
-0.16596 20.1638 -0.00523783 -0.227368 20.1263 -0.00431559 -0.202577 20.3204 -0.00737651 -0.146993
20.3506 -0.00751096 -0.0441661 20.2683 -0.00672166 -0.209519 20.0785 -0.00166556 -0.076239 20.0852
-0.00224567 -0.124578 20.1745 -0.00545139 -0.233215 20.2189 -0.00613261 -0.233687 20.1181 -0.00409061
-0.196205 20.3511 -0.00760973 -0.0579375 20.3416 -0.00757264 -0.10108 20.0758 -0.00128198 -0.0490401
20.2251 -0.0062592 -0.235811 20.1856 -0.00568677 -0.238846 20.1103 -0.00384922 -0.189816 20.3318
-0.00754716 -0.131411 20.2532 -0.00663501 -0.22477 20.0944 -0.003104 -0.160169 20.0771 -0.00152333
-0.067135 20.0865 -0.00247827 -0.139054 20.3513 -0.00767094 -0.0719151 20.3083 -0.00733469 -0.179235
20.2951 -0.00713323 -0.195422 20.1972 -0.00592776 -0.244225 20.0775 -0.00179355 -0.095205 20.0791
-0.00194175 -0.10715 20.103 -0.00363343 -0.183431 20.3206 -0.0074865 -0.163079 20.2811 -0.0069707
-0.211522 20.0752 -0.0016549 -0.0836221 20.0798 -0.00208509 -0.119912 20.3426 -0.00770959 -0.115928
20.2377 -0.00653949 -0.23968 20.074 -0.00127518 -0.0571957 20 0 0 20
0 0 20.3517 -0.00714142 -0.00590337 20.0695 -0.00100653 -0.00497615 20.0882 -0.00284416
-0.154437 20.3589 -0.007494 -0.0170106 20.3518 -0.00773968 -0.0860675 20.1387 -0.00488977 -0.229968
20.2092 -0.00616017 -0.249296 20.3323 -0.00764702 -0.146989 20.2662 -0.00688197 -0.227478 20.1485
-0.00512459 -0.236739 20.1295 -0.00463864 -0.223104 20.3604 -0.00763322 -0.0303548 20.0742 -0.00151751
-0.0734002 20.0961 -0.00343748 -0.177074 20.0809 -0.00227715 -0.133914 20.0727 -0.000990171 -0.0147578
20.1588 -0.00534222 -0.243379 20.1207 -0.00440703 -0.216177 20.3612 -0.00775386 -0.0438493 20.1696
-0.00556501 -0.249835 20.1124 -0.00417491 -0.209217 20.2189 -0.00635707 -0.252936 20.3435 -0.00784175
-0.131099 20.2507 -0.00680664 -0.243158 20.0735 -0.0013489 -0.0657538 20.3529 -0.0078459 -0.100601
20.2218 -0.00641523 -0.254011 20.308 -0.00743892 -0.196366 20.0824 -0.00258844 -0.148779 20.3618
-0.0078522 -0.0575287 20.0896 -0.00320672 -0.170771 20.0742 -0.00180562 -0.103072 20.0712 -0.000952583
-0.0276154 20.1809 -0.00580599 -0.256058 20.2942 -0.00724548 -0.213076 20.3209 -0.00761587 -0.179674
20.1046 -0.00392799 -0.202247 20.0727 -0.00165691 -0.0915553 20.0747 -0.00194047 -0.115314 20.2795
-0.00713309 -0.229749 20.333 -0.00776055 -0.163095 20.0708 -0.00150382 -0.0800504 20.0755 -0.00210706
-0.128849 20.3621 -0.00791684 -0.0714085 20.1928 -0.00605178 -0.262023 20.0972 -0.00370443 -0.195288
20.3541 -0.00798401 -0.115386 20.2348 -0.00669372 -0.258341 20.0835 -0.00294397 -0.164541 20.2641
-0.00705444 -0.24621 20.3444 -0.0079416 -0.146656 20.07 -0.00129252 -0.0709843 20.0769 -0.0023736
-0.143211 20 0 0 20.3619 -0.00737065 -0.00583416 20.3694 -0.0077289 -0.0168438
20.3628 -0.00798901 -0.0854671 20.2052 -0.00629132 -0.26767 20.0903 -0.00349862 -0.188378 20.068
-0.000918476 -0.0401105 20.1325 -0.00498592 -0.245251 20.1424 -0.00522418 -0.252666 20.1231 -0.00473049
-0.237747 20.3708 -0.00787476 -0.0300688 20.1529 -0.00544504 -0.259959 20.3075 -0.00755376 -0.214169
20.321 -0.00772654 -0.19689 20.1143 -0.00449581 -0.230189 20.0697 -0.00166999 -0.0991725 20.0699
-0.00180385 -0.110792 20.3717 -0.00799719 -0.0434364 20.293 -0.0074128 -0.231525 20.3336 -0.00789165
-0.17972 20.2483 -0.0069607 -0.262248 20.1639 -0.00567394 -0.267072 20.3553 -0.00811545 -0.130494
20.0682 -0.00151202 -0.088019 20.0705 -0.00194577 -0.123855 20.106 -0.00426151 -0.22261 20.0777
-0.00268905 -0.158396 20.2175 -0.00653617 -0.272635 20.3641 -0.00809431 -0.0999005 20.2182 -0.0065504
-0.272924 20.0838 -0.00325891 -0.181538 20.3724 -0.00809581 -0.0569928 20.1756 -0.00592257 -0.27394
20.2778 -0.00730827 -0.248786 20.3453 -0.00806233 -0.16274 20.0981 -0.00400957 -0.215029 20.0671
-0.0013171 -0.0771541 20.0717 -0.00219443 -0.137746 20.3729 -0.0081649 -0.0707439 20.1878 -0.00617455
-0.280541 20.0908 -0.00377848 -0.207477 20.2316 -0.00682829 -0.277763 20.3656 -0.00822942 -0.114587
20.2621 -0.00721327 -0.265691 20.3565 -0.00821754 -0.145991 20.0777 -0.00299196 -0.174782 20.0653
-0.000935376 -0.0533816 20.0724 -0.00247077 -0.15236 20.3209 -0.00784943 -0.214797 20.0655 -0.00166643
-0.106369 20.3068 -0.00772191 -0.232788 20.3341 -0.00800975 -0.196978 20.0654 -0.00152621 -0.095621
20.0657 -0.00179457 -0.118926 20.3738 -0.00824095 -0.0846746 20.2154 -0.00663706 -0.285727 20
0 0 20 0 0 20.372 -0.00766491 -0.00575361 20.2006 -0.0064193
-0.286815 20.0627 -0.000791236 -0.00611245 20.0839 -0.00356847 -0.199998 20.3797 -0.00802048 -0.0166392