# vtk DataFile Version 2.0
track0
ASCII
DATASET POLYDATA
POINTS 15209 float
-1.001 -0.05 0.0011
-1.00088 -0.05 0.0011
-1.00076 -0.05 0.00109999
-1.00064 -0.05 0.00109999
-1.00052 -0.05 0.00109999
-1.0004 -0.05 0.00109998
-0.975398 -0.05 0.00109925
-0.9504 -0.0499999 0.00109824
-0.925402 -0.0499999 0.00109723
-0.900404 -0.0499998 0.00109623
-0.875406 -0.0499998 0.00109522
-0.850407 -0.0499998 0.0010941
-0.825407 -0.0499996 0.00109262
-0.800408 -0.0499995 0.00109114
-0.775408 -0.0499993 0.00108966
-0.750409 -0.0499991 0.00108818
-0.737914 -0.049999 0.00108725
-0.72542 -0.0499989 0.00108572
-0.712925 -0.0499987 0.00108419
-0.700431 -0.0499985 0.00108267
-0.687936 -0.0499983 0.00108115
-0.675431 -0.0499983 0.00108007
-0.662926 -0.0499981 0.00107838
-0.65042 -0.0499979 0.0010767
-0.637915 -0.0499977 0.00107502
-0.62541 -0.0499974 0.00107334
-0.612898 -0.0499972 0.00107203
-0.600387 -0.0499969 0.00107011
-0.587876 -0.0499967 0.00106819
-0.575365 -0.0499964 0.00106627
-0.562854 -0.0499961 0.00106435
-0.550338 -0.0499961 0.00106279
-0.537822 -0.0499958 0.00106063
-0.525307 -0.0499954 0.00105847
-0.512791 -0.049995 0.00105632
-0.500275 -0.0499947 0.00105417
-0.487751 -0.0499942 0.00105239
-0.475226 -0.0499937 0.00105008
-0.462701 -0.0499932 0.00104777
-0.450177 -0.0499928 0.00104547
-0.437652 -0.0499923 0.00104317
-0.42513 -0.0499924 0.00104124
-0.412607 -0.0499917 0.0010388
-0.400084 -0.049991 0.00103636
-0.387562 -0.0499904 0.00103393
-0.375039 -0.0499897 0.00103151
-0.362534 -0.0499889 0.00102971
-0.350028 -0.0499881 0.00102807
-0.337522 -0.0499873 0.00102644
-0.325017 -0.0499865 0.0010248
-0.312511 -0.0499856 0.00102317
-0.306259 -0.0499852 0.00102242
-0.300007 -0.0499842 0.00102111
-0.293755 -0.0499833 0.00101981
-0.287503 -0.0499823 0.00101851
-0.281251 -0.0499814 0.0010172
-0.275 -0.0499801 0.00101656
-0.26875 -0.049979 0.00101557
-0.2625 -0.0499779 0.00101458
-0.25625 -0.0499767 0.00101359
-0.25 -0.0499756 0.0010126
-0.24375 -0.049975 0.00101219
-0.2375 -0.0499736 0.00101148
-0.23125 -0.0499722 0.00101076
-0.225 -0.0499708 0.00101004
-0.21875 -0.0499694 0.00100932
-0.2125 -0.0499679 0.00100917
-0.20625 -0.0499662 0.0010088
-0.2 -0.0499645 0.00100842
-0.19375 -0.0499628 0.00100805
-0.1875 -0.0499612 0.00100768
-0.18125 -0.0499604 0.0010079
-0.175 -0.0499584 0.00100798
-0.16875 -0.0499564 0.00100806
-0.1625 -0.0499545 0.00100815
-0.15625 -0.0499525 0.00100823
-0.153125 -0.0499513 0.0010084
-0.15 -0.0499491 0.00100868
-0.146875 -0.0499468 0.00100895
-0.14375 -0.0499446 0.00100922
-0.140625 -0.0499423 0.00100949
-0.1375 -0.0499404 0.00100977
-0.134374 -0.0499378 0.00101024
-0.131249 -0.0499352 0.00101072
-0.128124 -0.0499327 0.00101119
-0.124999 -0.0499301 0.00101167
-0.121874 -0.0499287 0.00101207
-0.118749 -0.0499258 0.00101272
-0.115624 -0.049923 0.00101336
-0.112499 -0.0499201 0.00101401
-0.109374 -0.0499172 0.00101466
-0.106249 -0.049915 0.00101519
-0.103124 -0.0499119 0.00101597
-0.0999989 -0.0499088 0.00101674
-0.0968739 -0.0499057 0.00101752
-0.0937488 -0.0499026 0.00101829
-0.0906239 -0.049901 0.00101892
-0.0874989 -0.0498977 0.00101982
-0.0843739 -0.0498943 0.00102071
-0.0812489 -0.049891 0.0010216
-0.0781239 -0.0498877 0.00102249
-0.0749989 -0.0498852 0.00102325
-0.0718739 -0.0498817 0.00102425
-0.0687489 -0.0498781 0.00102525
-0.0656238 -0.0498746 0.00102625
-0.0624988 -0.049871 0.00102726
-0.0593738 -0.0498692 0.0010281
-0.0562488 -0.0498654 0.0010292
-0.0531238 -0.0498617 0.00103031
-0.0499988 -0.0498579 0.00103143
-0.0468738 -0.0498541 0.00103254
-0.0437488 -0.0498514 0.0010335
-0.0406238 -0.0498474 0.00103471
-0.0374988 -0.0498434 0.00103593
-0.0343738 -0.0498394 0.00103715
-0.0312488 -0.0498353 0.00103836
-0.0281239 -0.0498334 0.00103941
-0.0249989 -0.0498291 0.00104072
-0.0218739 -0.0498249 0.00104204
-0.018749 -0.0498206 0.00104336
-0.015624 -0.0498164 0.00104468
-0.012499 -0.0498135 0.00104584
-0.00937393 -0.049809 0.00104725
-0.00624889 -0.0498045 0.00104867
-0.00312386 -0.0498 0.00105008
1.18296e-06 -0.0497956 0.0010515
0.00312621 -0.0497934 0.00105274
0.00625124 -0.0497887 0.00105425
0.00937627 -0.049784 0.00105576
0.0125013 -0.0497793 0.00105727
0.0156263 -0.0497746 0.00105879
0.0187516 -0.0497714 0.00106013
0.0218768 -0.0497665 0.00106173
0.025002 -0.0497616 0.00106334
0.0281273 -0.0497566 0.00106494
0.0312525 -0.0497517 0.00106655
0.0343793 -0.0497494 0.00106797
0.037506 -0.0497442 0.00106966
0.0406327 -0.0497391 0.00107135
0.0437595 -0.0497339 0.00107305
0.0468862 -0.0497288 0.00107474
0.050011 -0.0497253 0.00107626
0.0531358 -0.04972 0.00107803
0.0562606 -0.0497146 0.00107981
0.0593853 -0.0497092 0.00108159
0.0625101 -0.0497038 0.00108337
0.065635 -0.0497013 0.00108496
0.0687598 -0.0496957 0.00108682
0.0718846 -0.0496901 0.00108867
0.0750094 -0.0496845 0.00109053
0.0781342 -0.0496789 0.0010924
0.0812601 -0.0496752 0.00109407
0.084386 -0.0496694 0.00109601
0.0875119 -0.0496636 0.00109795
0.0906377 -0.0496578 0.00109989
0.0937636 -0.0496519 0.00110183
0.0968915 -0.0496492 0.00110357
0.100019 -0.0496432 0.00110558
0.103147 -0.0496372 0.00110759
0.106275 -0.0496311 0.00110961
0.109403 -0.0496251 0.00111163
0.112529 -0.0496211 0.00111345
0.115655 -0.0496149 0.00111553
0.118781 -0.0496087 0.00111761
0.121907 -0.0496024 0.00111969
0.125032 -0.0495961 0.00112178
0.128157 -0.0495933 0.00112366
0.131283 -0.0495868 0.0011258
0.134408 -0.0495804 0.00112795
0.137533 -0.0495739 0.0011301
0.140658 -0.0495675 0.00113225
0.143784 -0.0495633 0.00113419
0.146909 -0.0495566 0.0011364
0.150035 -0.04955 0.0011386
0.153161 -0.0495433 0.00114081
0.156287 -0.0495366 0.00114303
0.159413 -0.0495336 0.00114503
0.16254 -0.0495267 0.00114729
0.165667 -0.0495199 0.00114955
0.168794 -0.049513 0.00115182
0.171921 -0.0495061 0.0011541
0.175047 -0.0495017 0.00115614
0.178172 -0.0494946 0.00115845
0.181298 -0.0494876 0.00116077
0.184424 -0.0494805 0.00116309
0.18755 -0.0494734 0.00116542
0.190674 -0.0494702 0.00116751
0.193799 -0.049463 0.00116987
0.196923 -0.0494557 0.00117223
0.200048 -0.0494485 0.0011746
0.203172 -0.0494412 0.00117697
0.206296 -0.0494366 0.0011791
0.209421 -0.0494292 0.00118149
0.212545 -0.0494217 0.0011839
0.215669 -0.0494143 0.00118631
0.218794 -0.0494068 0.00118872
0.221919 -0.0494035 0.00119089
0.225045 -0.0493959 0.00119333
0.22817 -0.0493883 0.00119577
0.231296 -0.0493807 0.00119822
0.234421 -0.049373 0.00120067
0.237548 -0.0493682 0.00120286
0.240674 -0.0493604 0.00120534
0.2438 -0.0493526 0.00120781
0.246927 -0.0493448 0.0012103
0.250053 -0.049337 0.00121278
0.25318 -0.0493335 0.00121502
0.256307 -0.0493256 0.00121752
0.259434 -0.0493177 0.00122003
0.262561 -0.0493097 0.00122254
0.265688 -0.0493017 0.00122506
0.268813 -0.0492967 0.00122731
0.271938 -0.0492886 0.00122983
0.275062 -0.0492805 0.00123237
0.278187 -0.0492724 0.0012349
0.281312 -0.0492643 0.00123745
0.284435 -0.0492606 0.00123972
0.287558 -0.0492524 0.00124227
0.290681 -0.0492442 0.00124482
0.293804 -0.0492359 0.00124737
0.296927 -0.0492277 0.00124993
0.30005 -0.0492225 0.00125221
0.303174 -0.0492141 0.00125477
0.306297 -0.0492058 0.00125733
0.309421 -0.0491974 0.0012599
0.312544 -0.049189 0.00126248
0.315668 -0.0491853 0.00126478
0.318793 -0.0491768 0.00126735
0.321917 -0.0491683 0.00126993
0.325041 -0.0491598 0.00127251
0.328166 -0.0491512 0.0012751
0.331291 -0.0491459 0.00127739
0.334416 -0.0491373 0.00127997
0.337541 -0.0491287 0.00128256
0.340666 -0.0491201 0.00128515
0.343791 -0.0491114 0.00128775
0.346916 -0.0491076 0.00129006
0.350042 -0.0490989 0.00129265
0.353168 -0.0490901 0.00129524
0.356294 -0.0490814 0.00129784
0.35942 -0.0490726 0.00130044
0.362549 -0.0490671 0.00130275
0.365679 -0.0490583 0.00130534
0.368808 -0.0490494 0.00130794
0.371938 -0.0490406 0.00131054
0.375068 -0.0490317 0.00131315
0.378205 -0.0490277 0.00131548
0.381343 -0.0490188 0.00131808
0.384481 -0.0490098 0.00132068
0.387619 -0.0490009 0.00132329
0.390756 -0.0489919 0.00132591
0.393889 -0.0489863 0.00132821
0.397022 -0.0489773 0.0013308
0.400155 -0.0489682 0.00133339
0.403288 -0.0489592 0.001336
0.406421 -0.0489501 0.0013386
0.409551 -0.0489461 0.00134091
0.412682 -0.048937 0.0013435
0.415813 -0.0489279 0.00134608
0.418943 -0.0489188 0.00134868
0.422074 -0.0489096 0.00135128
0.425204 -0.048904 0.00135356
0.428334 -0.0488948 0.00135614
0.431464 -0.0488856 0.00135872
0.434594 -0.0488764 0.0013613
0.437724 -0.0488672 0.00136389
0.440854 -0.0488631 0.00136619
0.443984 -0.0488539 0.00136875
0.447114 -0.0488446 0.00137132
0.450244 -0.0488353 0.0013739
0.453374 -0.0488261 0.00137648
0.456504 -0.0488203 0.00137874
0.459634 -0.048811 0.0013813
0.462763 -0.0488017 0.00138386
0.465893 -0.0487923 0.00138642
0.469023 -0.048783 0.00138899
0.472152 -0.0487789 0.00139126
0.475282 -0.0487695 0.0013938
0.478411 -0.0487601 0.00139634
0.481541 -0.0487507 0.00139889
0.48467 -0.0487413 0.00140145
0.4878 -0.0487355 0.00140368
0.490929 -0.0487261 0.0014062
0.494058 -0.0487167 0.00140873
0.497187 -0.0487072 0.00141126
0.500317 -0.0486978 0.0014138
0.503446 -0.0486936 0.00141604
0.506575 -0.0486842 0.00141854
0.509704 -0.0486747 0.00142105
0.512833 -0.0486652 0.00142357
0.515962 -0.0486557 0.00142609
0.519091 -0.0486498 0.00142828
0.52222 -0.0486403 0.00143077
0.525348 -0.0486308 0.00143326
0.528477 -0.0486213 0.00143576
0.531606 -0.0486118 0.00143826
0.534734 -0.0486076 0.00144045
0.537863 -0.0485981 0.00144292
0.540992 -0.0485886 0.00144539
0.54412 -0.048579 0.00144786
0.547249 -0.0485694 0.00145034
0.550377 -0.0485635 0.00145249
0.553506 -0.048554 0.00145494
0.556634 -0.0485444 0.00145738
0.559762 -0.0485349 0.00145983
0.562891 -0.0485253 0.00146229
0.566019 -0.0485211 0.00146444
0.569147 -0.0485115 0.00146686
0.572275 -0.048502 0.00146928
0.575403 -0.0484924 0.00147171
0.578532 -0.0484828 0.00147414
0.58166 -0.0484768 0.00147625
0.584788 -0.0484673 0.00147864
0.587915 -0.0484577 0.00148104
0.591043 -0.0484481 0.00148344
0.594171 -0.0484385 0.00148585
0.597299 -0.0484343 0.00148796
0.600427 -0.0484247 0.00149034
0.603555 -0.0484151 0.00149272
0.606683 -0.0484056 0.0014951
[...]
POINT_DATA 15209
 FIELD attributes 1
U 3 15209 float
25.0026 	1.98683e-05 	-0.000700532 25.0025 	1.93486e-05 	-0.00070746 25.0023 	1.88289e-05 	-0.000714387 25.0022 	1.83091e-05 	-0.000721315 25.002 	1.77894e-05 	-0.000728242 25.0018 	1.72697e-05 	-0.00073517 25.0046 	5.25645e-05 	-0.00100875 25.0046 	5.25163e-05 	-0.00100783 25.0046 	5.24681e-05 	-0.0010069 25.0046 	5.24199e-05 	-0.00100598 25.0028 	-3.23093e-06 	-0.00112192 25.0075 	0.000157654 	-0.0014824 25.0074 	0.00015744 	-0.00148039 25.0074 	0.000157227 	-0.00147839 25.0074 	0.000157014 	-0.00147638 25.0093 	0.000217611 	-0.00186072 25.0184 	0.000369797 	-0.00306341 25.0183 	0.000369277 	-0.0030591 25.0183 	0.000368757 	-0.0030548 25.0183 	0.000368238 	-0.0030505 25.0109 	-3.62519e-05 	-0.00214818 25.0235 	0.000444521 	-0.00337642 25.0234 	0.000443827 	-0.00337115 25.0234 	0.000443133 	-0.00336588 25.0233 	0.000442441 	-0.00336062 25.0135 	0.000401495 	-0.00261045 25.0294 	0.000566547 	-0.00385081 25.0294 	0.00056553 	-0.00384389 25.0293 	0.000564515 	-0.00383699 25.0293 	0.000563501 	-0.0038301 25.0167 	-8.3718e-05 	-0.0031231 25.0366 	0.000747911 	-0.00432221 25.0366 	0.00074639 	-0.00431342 25.0365 	0.000744873 	-0.00430465 25.0364 	0.000743359 	-0.0042959 25.0204 	0.000825239 	-0.00356554 25.0449 	0.000990478 	-0.00462232 25.0448 	0.000988303 	-0.00461216 25.0447 	0.000986132 	-0.00460203 25.0446 	0.000983966 	-0.00459192 25.0251 	-0.000179212 	-0.00386344 25.0552 	0.0013227 	-0.00488581 25.055 	0.0013196 	-0.00487435 25.0549 	0.0013165 	-0.00486292 25.0548 	0.00131342 	-0.00485151 25.0302 	0.00157859 	-0.00360075 25.0652 	0.00165283 	-0.00328206 25.0651 	0.00165021 	-0.00327685 25.065 	0.00164758 	-0.00327163 25.0649 	0.00164496 	-0.00326643 25.071 	0.00195629 	-0.00301833 25.1403 	0.00382489 	-0.00525525 25.1401 	0.00382 	-0.00524853 25.14 	0.00381512 	-0.00524182 25.1398 	0.00381024 	-0.00523512 25.0742 	0.00488678 	-0.00257997 25.1504 	0.0045878 	-0.00398727 25.1502 	0.00458333 	-0.00398339 25.1501 	0.00457886 	-0.0039795 25.15 	0.0045744 	-0.00397562 25.0795 	0.00238903 	-0.00164072 25.1586 	0.00559137 	-0.00289258 25.1585 	0.0055874 	-0.00289052 25.1584 	0.00558344 	-0.00288847 25.1583 	0.00557947 	-0.00288642 25.083 	0.00634737 	-0.000595862 25.1659 	0.00674767 	-0.00150958 25.1658 	0.00674517 	-0.00150902 25.1657 	0.00674266 	-0.00150846 25.1657 	0.00674015 	-0.0015079 25.087 	0.00303256 	0.000902453 25.1706 	0.00797495 	0.000332389 25.1707 	0.0079756 	0.000332416 25.1707 	0.00797626 	0.000332443 25.1707 	0.00797691 	0.000332471 25.1735 	0.00928301 	0.00140513 25.3457 	0.0182393 	0.00219445 25.3458 	0.0182442 	0.00219504 25.3459 	0.0182491 	0.00219563 25.346 	0.018254 	0.00219622 25.1748 	0.0157528 	0.00224124 25.351 	0.0208485 	0.00386012 25.3512 	0.0208584 	0.00386194 25.3513 	0.0208682 	0.00386376 25.3515 	0.020878 	0.00386558 25.1778 	0.0112778 	0.00322237 25.3546 	0.0232156 	0.00524281 25.3548 	0.0232304 	0.00524615 25.3551 	0.0232452 	0.0052495 25.3553 	0.0232601 	0.00525286 25.1784 	0.01769 	0.00433112 25.3571 	0.0251619 	0.00628009 25.3574 	0.025181 	0.00628488 25.3577 	0.0252002 	0.00628967 25.3579 	0.0252195 	0.00629447 25.1804 	0.012939 	0.00507421 25.3582 	0.0270283 	0.00723113 25.3585 	0.027052 	0.00723746 25.3588 	0.0270756 	0.00724379 25.3591 	0.0270993 	0.00725012 25.1798 	0.0195777 	0.00608809 25.3583 	0.028833 	0.0081174 25.3586 	0.0288612 	0.00812534 25.359 	0.0288894 	0.00813328 25.3593 	0.0289177 	0.00814123 25.1808 	0.0144058 	0.00676906 25.358 	0.030678 	0.00899828 25.3584 	0.030711 	0.00900799 25.3588 	0.0307442 	0.0090177 25.3592 	0.0307773 	0.00902743 25.1799 	0.0215715 	0.00774282 25.3569 	0.0325242 	0.00985215 25.3573 	0.0325624 	0.00986372 25.3577 	0.0326007 	0.00987531 25.3581 	0.032639 	0.00988691 25.18 	0.0158925 	0.00841015 25.3549 	0.0343711 	0.0106738 25.3553 	0.0344146 	0.0106873 25.3558 	0.0344581 	0.0107009 25.3562 	0.0345018 	0.0107144 25.1782 	0.0236133 	0.00932602 25.352 	0.0362296 	0.0114695 25.3525 	0.0362785 	0.011485 25.353 	0.0363276 	0.0115005 25.3535 	0.0363767 	0.011516 25.1775 	0.0173799 	0.00997585 25.3483 	0.0380381 	0.0122366 25.3488 	0.0380926 	0.0122542 25.3493 	0.0381472 	0.0122717 25.3498 	0.0382019 	0.0122893 25.1748 	0.0256466 	0.0108192 25.3437 	0.039855 	0.0129751 25.3443 	0.0399151 	0.0129947 25.3448 	0.0399754 	0.0130143 25.3453 	0.0400357 	0.013034 25.1734 	0.0188547 	0.0114506 25.3386 	0.0416722 	0.0136913 25.3392 	0.0417381 	0.013713 25.3397 	0.0418041 	0.0137347 25.3402 	0.0418703 	0.0137564 25.17 	0.0276968 	0.0122149 25.3329 	0.0434614 	0.0143785 25.3334 	0.043533 	0.0144022 25.334 	0.0436048 	0.014426 25.3345 	0.0436766 	0.0144497 25.1676 	0.020289 	0.0127982 25.3263 	0.0452491 	0.0150348 25.3269 	0.0453265 	0.0150605 25.3274 	0.045404 	0.0150862 25.328 	0.0454816 	0.015112 25.1639 	0.0297364 	0.013487 25.3192 	0.0470221 	0.0156618 25.3198 	0.0471052 	0.0156895 25.3204 	0.0471885 	0.0157172 25.3209 	0.0472719 	0.015745 25.1607 	0.0217196 	0.014021 25.3117 	0.0487461 	0.0162603 25.3123 	0.0488349 	0.0162899 25.3129 	0.0489238 	0.0163196 25.3134 	0.0490128 	0.0163493 25.1566 	0.0317216 	0.014623 25.3035 	0.0504342 	0.0168211 25.3041 	0.0505283 	0.0168525 25.3047 	0.0506226 	0.0168839 25.3052 	0.0507171 	0.0169154 25.1526 	0.0230939 	0.0151041 25.2948 	0.0520937 	0.017339 25.2953 	0.052193 	0.017372 25.2959 	0.0522925 	0.0174052 25.2964 	0.0523922 	0.0174383 25.148 	0.0336231 	0.0156023 25.2857 	0.0537337 	0.0178235 25.2862 	0.0538381 	0.0178582 25.2868 	0.0539427 	0.0178929 25.2873 	0.0540475 	0.0179276 25.1436 	0.0244373 	0.0160361 25.2763 	0.0553782 	0.018277 25.2769 	0.0554875 	0.0183131 25.2774 	0.0555971 	0.0183493 25.278 	0.0557069 	0.0183855 25.1388 	0.0355191 	0.0164373 25.2666 	0.0569669 	0.0186919 25.2671 	0.0570808 	0.0187293 25.2677 	0.057195 	0.0187667 25.2682 	0.0573094 	0.0188042 25.1339 	0.0257444 	0.0168195 25.2564 	0.0584671 	0.0190607 25.2569 	0.0585852 	0.0190992 25.2574 	0.0587036 	0.0191378 25.2579 	0.0588221 	0.0191764 25.1286 	0.0372537 	0.0171119 25.2458 	0.0599012 	0.0193848 25.2463 	0.0600231 	0.0194242 25.2468 	0.0601452 	0.0194638 25.2473 	0.0602676 	0.0195034 25.1233 	0.0269168 	0.0174364 25.2352 	0.0612949 	0.0196803 25.2357 	0.0614204 	0.0197206 25.2362 	0.0615461 	0.0197609 25.2366 	0.061672 	0.0198014 25.118 	0.0388646 	0.0176385 25.2245 	0.062649 	0.0199474 25.225 	0.0627778 	0.0199884 25.2255 	0.0629068 	0.0200295 25.2259 	0.0630361 	0.0200707 25.1127 	0.0280455 	0.0179207 25.2139 	0.0639595 	0.0201874 25.2143 	0.0640913 	0.020229 25.2148 	0.0642233 	0.0202707 25.2152 	0.0643557 	0.0203125 25.1073 	0.0404111 	0.0180431 25.203 	0.0651787 	0.0203848 25.2034 	0.0653129 	0.0204268 25.2038 	0.0654474 	0.0204689 25.2042 	0.0655822 	0.020511 25.1017 	0.029077 	0.0182833 25.1917 	0.0662836 	0.0205283 25.1921 	0.0664197 	0.0205704 25.1925 	0.066556 	0.0206126 25.1929 	0.0666926 	0.020655 25.096 	0.0416982 	0.0182965 25.1805 	0.0673118 	0.0206344 25.1808 	0.0674493 	0.0206766 25.1812 	0.0675872 	0.0207188 25.1816 	0.0677254 	0.0207612 25.0903 	0.0299158 	0.0184819 25.1694 	0.0682935 	0.0207147 25.1697 	0.0684324 	0.0207568 25.17 	0.0685715 	0.020799 25.1704 	0.0687109 	0.0208413 25.0849 	0.0428443 	0.0184281 25.1584 	0.0692349 	0.0207755 25.1588 	0.0693748 	0.0208175 25.1591 	0.0695149 	0.0208596 25.1594 	0.0696553 	0.0209017 25.0793 	0.0307056 	0.0185843 25.1477 	0.0701276 	0.0208143 25.148 	0.0702683 	0.020856 25.1483 	0.0704092 	0.0208978 25.1486 	0.0705504 	0.0209398 25.0741 	0.0438986 	0.0184661 25.1372 	0.0709553 	0.0208311 25.1374 	0.0710965 	0.0208725 25.1377 	0.0712381 	0.0209141 25.138 	0.0713799 	0.0209557 25.0687 	0.0314168 	0.0185981 25.1266 	0.0716411 	0.0208158 25.1269 	0.0717827 	0.0208569 25.1271 	0.0719245 	0.0208981 25.1274 	0.0720666 	0.0209394 25.0635 	0.0447182 	0.0184063 25.1163 	0.0722747 	0.020768 25.1165 	0.0724157 	0.0208085 25.1167 	0.0725569 	0.0208491 25.117 	0.0726984 	0.0208897 25.0582 	0.0319557 	0.018501 25.1063 	0.0729127 	0.0207181 25.1065 	0.0730532 	0.0207581 25.1067 	0.0731939 	0.0207981 25.107 	0.0733349 	0.0208381 25.0534 	0.0454897 	0.0182785 25.0967 	0.0735117 	0.0206542 25.0968 	0.0736516 	0.0206935 25.097 	0.0737918 	0.0207329 25.0972 	0.0739323 	0.0207723 25.0484 	0.0324758 	0.0183531 25.0872 	0.074054 	0.0205705 25.0874 	0.0741931 	0.0206092 25.0876 	0.0743325 	0.0206479 25.0877 	0.0744722 	0.0206867 25.0439 	0.0461688 	0.0180916 25.0781 	0.0745355 	0.0204698 25.0782 	0.0746736 	0.0205077 25.0784 	0.074812 	0.0205457 25.0785 	0.0749506 	0.0205838 25.0391 	0.032898 	0.0181394 25.0692 	0.074962 	0.0203514 25.0693 	0.0750988 	0.0203885 25.0694 	0.075236 	0.0204258 25.0696 	0.0753734 	0.0204631 25.0349 	0.0467155 	0.0178477 25.0606 	0.0753368 	0.0202168 25.0607 	0.0754723 	0.0202531 25.0608 	0.075608 	0.0202896 25.0609 	0.075744 	0.0203261 25.0303 	0.0332277 	0.0178717 25.0523 	0.0756562 	0.0200674 25.0524 	0.0757901 	0.0201029 25.0524 	0.0759242 	0.0201385 25.0525 	0.0760586 	0.0201741 25.0264 	0.0471392 	0.0175566 25.0443 	0.0759193 	0.0199055 25.0444 	0.0760514 	0.0199402 25.0444 	0.0761839 	0.0199749 25.0445 	0.0763165 	0.0200097 25.0222 	0.0334664 	0.0175596 25.0366 	0.0761318 	0.0197315 25.0367 	0.0762621 	0.0197653 25.0367 	0.0763927 	0.0197991 25.0368 	0.0765234 	0.019833 25.0186 	0.0474344 	0.0172285 25.0292 	0.0762918 	0.019543 25.0293 	0.0764201 	0.0195758 25.0293 	0.0765486 	0.0196088 25.0294 	0.0766774 	0.0196417 25.0146 	0.0336181 	0.0172137 25.0222 	0.0763994 	0.0193466 25.0223 	0.0765255 	0.0193785 25.0223 	0.0766519 	0.0194105 25.0223 	0.0767785 	0.0194426 25.0114 	0.0476083 	0.0168767 25.0155 	0.0764321 	0.0191442 25.0156 	0.076556 	0.0191752 25.0156 	0.0766802 	0.0192063 25.0156 	0.0768045 	0.0192374 25.0077 	0.0336688 	0.0168844 25.0095 	0.0764346 	0.0190042 25.0095 	0.0765567 	0.0190345 25.0095 	0.076679 	0.0190649 25.0095 	0.0768015 	0.0190954 25.0048 	0.0476722 	0.0165908 25.0029 	0.0764159 	0.0188963 25.0029 	0.0765364 	0.0189261 25.003 	0.076657 	0.018956 25.003 	0.0767778 	0.0189858 25.0013 	0.0336832 	0.0166305 24.9971 	0.0764104 	0.0188001 24.9971 	0.0765294 	0.0188294 24.9971 	0.0766485 	0.0188587 24.9971 	0.0767678 	0.018888 24.9987 	0.0476667 	0.0163397 24.991 	0.0763146 	0.0186554 24.991 	0.0764316 	0.018684 24.991 	0.0765488 	0.0187127 24.9909 	0.0766662 	0.0187414 24.9954 	0.0336456 	0.0163589 24.9858 	0.0762238 	0.0185593 24.9858 	0.0763392 	0.0185874 24.9858 	0.0764548 	0.0186155 24.9857 	0.0765706 	0.0186437 24.9931 	0.0475981 	0.0160896 24.9798 	0.0761395 	0.0184894 24.9798 	0.0762536 	0.0185171 24.9797 	0.0763678 	0.0185448 24.9797 	0.0764822 	0.0185726 24.99 	0.0335819 	0.0160939 24.9746 	0.0760377 	0.0183318 24.9746 	0.0761498 	0.0183588 24.9745 	0.0762621 	0.0183859 24.9745 	0.0763746 	0.018413 24.988 	0.0474969 	0.0157779 24.9698 	0.0758827 	0.0181016 24.9697 	0.0759924 	0.0181278 24.9697 	0.0761023 	0.018154 24.9696 	0.0762123 	0.0181802 24.9852 	0.0334694 	0.0157004 24.9652 	0.0756873 	0.0178641 24.9652 	0.0757946 	0.0178894 24.9651 	0.075902 	0.0179148 24.9651 	0.0759102 	0.0179351 24.9835 	0.047189 	0.0153857 24.9612 	0.0749143 	0.0176064 24.9613 	0.074752 	0.0176157 24.9613 	0.0745903 	0.0176251 24.9614 	0.0744291 	0.0176345 24.9809 	0.0333044 	0.0153169 24.9579 	0.0735039 	0.0173433 24.958 	0.0733471 	0.017354 24.9581 	0.073191 	0.0173648 24.9582 	0.0730353 	0.0173756 24.9795 	0.0461662 	0.015041 24.9549 	0.0720467 	0.0170675 24.955 	0.0718919 	0.0170762 24.9551 	0.0717376 	0.017085 24.9552 	0.0715839 	0.0170938 24.9772 	0.0331087 	0.0149745 24.9524 	0.0707002 	0.0168431 24.9525 	0.0705509 	0.0168532 24.9526 	0.0704022 	0.0168632 24.9527 	0.070254 	0.0168733 24.9759 	0.045153 	0.0147273 24.9499 	0.0692787 	0.0165743 24.95 	0.0691315 	0.0165825 24.9501 	0.0689848 	0.0165908 24.9502 	0.0688385 	0.0165992 24.9739 	0.0328908 	0.0146555 24.948 	0.068 	0.0163788 24.9481 	0.0678583 	0.0163883 24.9482 	0.067717 	0.0163977 24.9483 	0.0675761 	0.0164072 24.9728 	0.0441592 	0.0144355 24.946 	0.0666002 	0.0161141 24.9461 	0.0664604 	0.0161219 24.9462 	0.0663211 	0.0161298 24.9463 	0.0661822 	0.0161377 24.971 	0.0326486 	0.014355 24.9446 	0.0653405 	0.015938 24.9447 	0.0651636 	0.0159449 24.9449 	0.0649873 	0.0159518 24.945 	0.0648115 	0.0159587 24.9701 	0.0430949 	0.0141566 24.9432 	0.0637955 	0.0156667 24.9433 	0.0636225 	0.015672 24.9434 	0.06345 	0.0156774 24.9436 	0.0632781 	0.0156828 24.9685 	0.0323902 	0.0140707 24.9424 	0.0624697 	0.0155099 24.9425 	0.0623042 	0.0155165 24.9426 	0.0621392 	0.0155232 24.9428 	0.0619747 	0.0155299 24.9678 	0.0420121 	0.0138981 24.9413 	0.0609938 	0.015246 24.9414 	0.060832 	0.0152513 24.9415 	0.0606706 	0.0152565 24.9417 	0.0605097 	0.0152619 24.9664 	0.0321261 	0.0138038 24.9408 	0.0597629 	0.0151117 24.941 	0.0596049 	0.015118 24.9411 	0.0594473 	0.0151243 24.9412 	0.0592902 	0.0151307 24.9658 	0.040981 	0.0136501 24.9401 	0.0583397 	0.0148414 24.9402 	0.0581883 	0.0148466 24.9404 	0.0580373 	0.0148518 24.9405 	0.0578867 	0.014857 24.9645 	0.0318624 	0.0135409 24.9399 	0.0571741 	0.0147354 24.9401 	0.0570201 	0.0147412 24.9402 	0.0568665 	0.014747 24.9404 	0.0567134 	0.0147528 24.9641 	0.0400106 	0.0133926 24.9397 	0.0557666 	0.0143935 24.9398 	0.05556 	0.0143958 24.94 	0.0553539 	0.014398 24.9402 	0.0551484 	0.0144003 24.963 	0.0316343 	0.0132768 24.9402 	0.0542537 	0.0145475 24.9404 	0.0539911 	0.014545 24.9407 	0.0537292 	0.0145425 24.9409 	0.053468 	0.01454 24.9627 	0.038854 	0.0131132 24.9407 	0.0527314 	0.0130446 24.9411 	0.0522487 	0.0130545 24.9416 	0.0517673 	0.0130645 24.9421 	0.0512873 	0.0130745 24.9619 	0.0314889 	0.0130015 24.9616 	0.0310876 	0.0127317 24.9616 	0.0311441 	0.0127548 24.9615 	0.0312007 	0.012778 24.9614 	0.0312574 	0.0128012 24.9837 	0.0239628 	0.0133516 24.9608 	0.0310245 	0.0123013 24.9607 	0.0310783 	0.0123227 24.9606 	0.0311323 	0.0123441 24.9606 	0.0311863 	0.0123655 24.9829 	0.00989719 	0.0129554 24.9602 	0.0304296 	0.0125048 24.9601 	0.0304828 	0.0125266 24.9601 	0.0305362 	0.0125486 24.96 	0.0305897 	0.0125705 24.983 	0.0237574 	0.0128146 24.9592 	0.0320312 	0.00977552 24.9592 	0.0320746 	0.00978879 24.9591 	0.0321182 	0.00980207 24.9591 	0.0321618 	0.00981538 24.9823 	0.00981996 	0.0124333 24.982 	0.00956649 	0.0120701 24.9819 	0.00959824 	0.0121102 24.9818 	0.0096301 	0.0121504 24.9818 	0.00966207 	0.0121907 24.9928 	-0.00217796 	0.0136961 24.9814 	0.00940953 	0.0118076 24.9813 	0.00943956 	0.0118453 24.9813 	0.00946969 	0.0118831 24.9812 	0.00949992 	0.011921 24.9927 	0.0124533 	0.0133385 24.9811 	0.00929653 	0.0116424 24.981 	0.00932531 	0.0116784 24.981 	0.00935418 	0.0117146 24.9809 	0.00938314 	0.0117509 24.9924 	-0.00212752 	0.0132614 24.981 	0.00903907 	0.0112139 24.981 	0.0090656 	0.0112468 24.9809 	0.00909221 	0.0112798 24.9809 	0.00911889 	0.0113129 24.9926 	0.0123714 	0.0129877 24.9814 	0.00953869 	0.011506 24.9813 	0.00956699 	0.0115401 24.9813 	0.00959536 	0.0115743 24.9812 	0.00962382 	0.0116087 24.9926 	-0.00212518 	0.0128855 24.9817 	0.00690357 	0.00902471 24.9816 	0.00691939 	0.00904539 24.9816 	0.00693525 	0.00906612 24.9816 	0.00695115 	0.0090869 24.9927 	0.0124252 	0.0127306 24.9928 	0.0123561 	0.012543 24.9928 	0.0124336 	0.0126217 24.9927 	0.0125116 	0.0127009 24.9927 	0.01259 	0.0127806 24.9968 	-0.00117402 	0.0138485 24.9927 	0.0122373 	0.0122054 24.9926 	0.0123096 	0.0122776 24.9926 	0.0123824 	0.0123501 24.9925 	0.0124555 	0.0124231 24.997 	0.0147069 	0.0126716 24.9932 	0.0129636 	0.0126521 24.9932 	0.0130408 	0.0127274 24.9931 	0.0131184 	0.0128032 24.9931 	0.0131965 	0.0128794 24.9972 	-0.00120717 	0.013633 24.9945 	0.0102992 	0.0105774 24.9944 	0.0103489 	0.0106285 24.9944 	0.0103989 	0.0106798 24.9944 	0.0104491 	0.0107314 24.9976 	0.0155233 	0.0126797 24.9982 	0.0164376 	0.0125651 24.9981 	0.0166205 	0.0127049 24.9981 	0.0168054 	0.0128463 24.9981 	0.0169924 	0.0129892 24.9983 	-0.000862049 	0.0151005 24.9977 	0.0175512 	0.0124734 24.9976 	0.0177343 	0.0126036 24.9976 	0.0179193 	0.0127351 24.9976 	0.0181063 	0.012868 24.998 	0.0189354 	0.00965767 24.9975 	0.0185738 	0.0117821 24.9975 	0.018748 	0.0118926 24.9975 	0.0189239 	0.0120042 24.9975 	0.0191015 	0.0121168 24.9981 	-0.000972276 	0.0146408 24.999 	0.0160536 	0.00931711 24.999 	0.0161671 	0.00938296 24.999 	0.0162814 	0.00944928 24.999 	0.0163964 	0.00951606 24.9987 	0.0192409 	0.0093263 24.9994 	0.019531 	0.00896784 24.9994 	0.0197859 	0.00908485 24.9994 	0.020044 	0.00920339 24.9993 	0.0203056 	0.00932347 24.995 	-0.000183236 	0.00920576 24.9989 	0.0205937 	0.00862187 24.9989 	0.0208359 	0.00872327 24.9989 	0.021081 	0.00882587 24.9989 	0.0213289 	0.00892967 24.9975 	0.00766683 	0.00246982 24.9985 	0.0211493 	0.00840756 24.9984 	0.0213801 	0.00849928 24.9984 	0.0216133 	0.00859201 24.9984 	0.0218491 	0.00868574 24.9952 	-0.000259637 	0.00929345 24.9985 	0.021958 	0.00941672 24.9984 	0.022212 	0.00952563 24.9984 	0.0224689 	0.00963581 24.9984 	0.0227288 	0.00974726 24.9973 	0.00788251 	0.00289128 24.9972 	0.00764508 	0.00312189 24.9971 	0.00770071 	0.00314461 24.9971 	0.00775673 	0.00316748 24.9971 	0.00781317 	0.00319053 24.9986 	-8.30699e-06 	0.00185512 24.9973 	0.00717084 	0.00348318 24.9973 	0.00722715 	0.00351053 24.9973 	0.0072839 	0.00353809 24.9973 	0.0073411 	0.00356588 24.9986 	-1.34288e-05 	0.00197939 24.9974 	0.00702402 	0.00363784 24.9974 	0.00707961 	0.00366663 24.9974 	0.00713564 	0.00369565 24.9974 	0.00719212 	0.0037249 24.9986 	-1.54757e-05 	0.00203689 24.9974 	0.00697855 	0.00372034 24.9974 	0.00703304 	0.00374939 24.9974 	0.00708797 	0.00377867 24.9974 	0.00714332 	0.00380818 24.9985 	-1.69717e-05 	0.0020791 24.9974 	0.00696102 	0.00377477 24.9974 	0.00701426 	0.00380364 24.9974 	0.0070679 	0.00383274 24.9973 	0.00712196 	0.00386205 24.9985 	-1.83868e-05 	0.00211589 24.9974 	0.00695991 	0.00381022 24.9974 	0.00701181 	0.00383863 24.9973 	0.0070641 	0.00386726 24.9973 	0.00711678 	0.0038961 24.9985 	-1.95528e-05 	0.00214813 24.9974 	0.00697088 	0.00383105 24.9973 	0.00702141 	0.00385882 24.9973 	0.00707231 	0.00388679 24.9973 	0.00712358 	0.00391497 24.9984 	-2.04522e-05 	0.00217658 24.9973 	0.00698928 	0.00384092 24.9973 	0.00703843 	0.00386794 24.9973 	0.00708793 	0.00389514 24.9973 	0.00713777 	0.00392253 24.9984 	-2.12313e-05 	0.00220277 24.9973 	0.00701407 	0.00384718 24.9973 	0.00706193 	0.00387342 24.9973 	0.00711011 	0.00389985 24.9973 	0.00715861 	0.00392646 24.9984 	-2.19251e-05 	0.00222126 24.9699 	0.00548752 	0.0421099 24.9417 	0.00441419 	0.0815479 24.9133 	0.0038221 	0.121182 24.8848 	0.00371476 	0.161013 24.8609 	0.0028263 	0.190839