# vtk DataFile Version 2.0
track0
ASCII
DATASET POLYDATA
POINTS 15209 float
-1.001 -0.05 0.0011
-1.00088 -0.05 0.0011
-1.00076 -0.05 0.00109999
-1.00064 -0.05 0.00109999
-1.00052 -0.05 0.00109999
-1.0004 -0.05 0.00109998
-0.975398 -0.05 0.00109925
-0.9504 -0.0499999 0.00109824
-0.925402 -0.0499999 0.00109723
-0.900404 -0.0499998 0.00109623
-0.875406 -0.0499998 0.00109522
-0.850407 -0.0499998 0.0010941
-0.825407 -0.0499996 0.00109262
-0.800408 -0.0499995 0.00109114
-0.775408 -0.0499993 0.00108966
-0.750409 -0.0499991 0.00108818
-0.737914 -0.049999 0.00108725
-0.72542 -0.0499989 0.00108572
-0.712925 -0.0499987 0.00108419
-0.700431 -0.0499985 0.00108267
-0.687936 -0.0499983 0.00108115
-0.675431 -0.0499983 0.00108007
-0.662926 -0.0499981 0.00107838
-0.65042 -0.0499979 0.0010767
-0.637915 -0.0499977 0.00107502
-0.62541 -0.0499974 0.00107334
-0.612898 -0.0499972 0.00107203
-0.600387 -0.0499969 0.00107011
-0.587876 -0.0499967 0.00106819
-0.575365 -0.0499964 0.00106627
-0.562854 -0.0499961 0.00106435
-0.550338 -0.0499961 0.00106279
-0.537822 -0.0499958 0.00106063
-0.525307 -0.0499954 0.00105847
-0.512791 -0.049995 0.00105632
-0.500275 -0.0499947 0.00105417
-0.487751 -0.0499942 0.00105239
-0.475226 -0.0499937 0.00105008
-0.462701 -0.0499932 0.00104777
-0.450177 -0.0499928 0.00104547
-0.437652 -0.0499923 0.00104317
-0.42513 -0.0499924 0.00104124
-0.412607 -0.0499917 0.0010388
-0.400084 -0.049991 0.00103636
-0.387562 -0.0499904 0.00103393
-0.375039 -0.0499897 0.00103151
-0.362534 -0.0499889 0.00102971
-0.350028 -0.0499881 0.00102807
-0.337522 -0.0499873 0.00102644
-0.325017 -0.0499865 0.0010248
-0.312511 -0.0499856 0.00102317
-0.306259 -0.0499852 0.00102242
-0.300007 -0.0499842 0.00102111
-0.293755 -0.0499833 0.00101981
-0.287503 -0.0499823 0.00101851
-0.281251 -0.0499814 0.0010172
-0.275 -0.0499801 0.00101656
-0.26875 -0.049979 0.00101557
-0.2625 -0.0499779 0.00101458
-0.25625 -0.0499767 0.00101359
-0.25 -0.0499756 0.0010126
-0.24375 -0.049975 0.00101219
-0.2375 -0.0499736 0.00101148
-0.23125 -0.0499722 0.00101076
-0.225 -0.0499708 0.00101004
-0.21875 -0.0499694 0.00100932
-0.2125 -0.0499679 0.00100917
-0.20625 -0.0499662 0.0010088
-0.2 -0.0499645 0.00100842
-0.19375 -0.0499628 0.00100805
-0.1875 -0.0499612 0.00100768
-0.18125 -0.0499604 0.0010079
-0.175 -0.0499584 0.00100798
-0.16875 -0.0499564 0.00100806
-0.1625 -0.0499545 0.00100815
-0.15625 -0.0499525 0.00100823
-0.153125 -0.0499513 0.0010084
-0.15 -0.0499491 0.00100868
-0.146875 -0.0499468 0.00100895
-0.14375 -0.0499446 0.00100922
-0.140625 -0.0499423 0.00100949
-0.1375 -0.0499404 0.00100977
-0.134374 -0.0499378 0.00101024
-0.131249 -0.0499352 0.00101072
-0.128124 -0.0499327 0.00101119
-0.124999 -0.0499301 0.00101167
-0.121874 -0.0499287 0.00101207
-0.118749 -0.0499258 0.00101272
-0.115624 -0.049923 0.00101336
-0.112499 -0.0499201 0.00101401
-0.109374 -0.0499172 0.00101466
-0.106249 -0.049915 0.00101519
-0.103124 -0.0499119 0.00101597
-0.0999989 -0.0499088 0.00101674
-0.0968739 -0.0499057 0.00101752
-0.0937488 -0.0499026 0.00101829
-0.0906239 -0.049901 0.00101892
-0.0874989 -0.0498977 0.00101982
-0.0843739 -0.0498943 0.00102071
-0.0812489 -0.049891 0.0010216
-0.0781239 -0.0498877 0.00102249
-0.0749989 -0.0498852 0.00102325
-0.0718739 -0.0498817 0.00102425
-0.0687489 -0.0498781 0.00102525
-0.0656238 -0.0498746 0.00102625
-0.0624988 -0.049871 0.00102726
-0.0593738 -0.0498692 0.0010281
-0.0562488 -0.0498654 0.0010292
-0.0531238 -0.0498617 0.00103031
-0.0499988 -0.0498579 0.00103143
-0.0468738 -0.0498541 0.00103254
-0.0437488 -0.0498514 0.0010335
-0.0406238 -0.0498474 0.00103471
-0.0374988 -0.0498434 0.00103593
-0.0343738 -0.0498394 0.00103715
-0.0312488 -0.0498353 0.00103836
-0.0281239 -0.0498334 0.00103941
-0.0249989 -0.0498291 0.00104072
-0.0218739 -0.0498249 0.00104204
-0.018749 -0.0498206 0.00104336
-0.015624 -0.0498164 0.00104468
-0.012499 -0.0498135 0.00104584
-0.00937393 -0.049809 0.00104725
-0.00624889 -0.0498045 0.00104867
-0.00312386 -0.0498 0.00105008
1.18296e-06 -0.0497956 0.0010515
0.00312621 -0.0497934 0.00105274
0.00625124 -0.0497887 0.00105425
0.00937627 -0.049784 0.00105576
0.0125013 -0.0497793 0.00105727
0.0156263 -0.0497746 0.00105879
0.0187516 -0.0497714 0.00106013
0.0218768 -0.0497665 0.00106173
0.025002 -0.0497616 0.00106334
0.0281273 -0.0497566 0.00106494
0.0312525 -0.0497517 0.00106655
0.0343793 -0.0497494 0.00106797
0.037506 -0.0497442 0.00106966
0.0406327 -0.0497391 0.00107135
0.0437595 -0.0497339 0.00107305
0.0468862 -0.0497288 0.00107474
0.050011 -0.0497253 0.00107626
0.0531358 -0.04972 0.00107803
0.0562606 -0.0497146 0.00107981
0.0593853 -0.0497092 0.00108159
0.0625101 -0.0497038 0.00108337
0.065635 -0.0497013 0.00108496
0.0687598 -0.0496957 0.00108682
0.0718846 -0.0496901 0.00108867
0.0750094 -0.0496845 0.00109053
0.0781342 -0.0496789 0.0010924
0.0812601 -0.0496752 0.00109407
0.084386 -0.0496694 0.00109601
0.0875119 -0.0496636 0.00109795
0.0906377 -0.0496578 0.00109989
0.0937636 -0.0496519 0.00110183
0.0968915 -0.0496492 0.00110357
0.100019 -0.0496432 0.00110558
0.103147 -0.0496372 0.00110759
0.106275 -0.0496311 0.00110961
0.109403 -0.0496251 0.00111163
0.112529 -0.0496211 0.00111345
0.115655 -0.0496149 0.00111553
0.118781 -0.0496087 0.00111761
0.121907 -0.0496024 0.00111969
0.125032 -0.0495961 0.00112178
0.128157 -0.0495933 0.00112366
0.131283 -0.0495868 0.0011258
0.134408 -0.0495804 0.00112795
0.137533 -0.0495739 0.0011301
0.140658 -0.0495675 0.00113225
0.143784 -0.0495633 0.00113419
0.146909 -0.0495566 0.0011364
0.150035 -0.04955 0.0011386
0.153161 -0.0495433 0.00114081
0.156287 -0.0495366 0.00114303
0.159413 -0.0495336 0.00114503
0.16254 -0.0495267 0.00114729
0.165667 -0.0495199 0.00114955
0.168794 -0.049513 0.00115182
0.171921 -0.0495061 0.0011541
0.175047 -0.0495017 0.00115614
0.178172 -0.0494946 0.00115845
0.181298 -0.0494876 0.00116077
0.184424 -0.0494805 0.00116309
0.18755 -0.0494734 0.00116542
0.190674 -0.0494702 0.00116751
0.193799 -0.049463 0.00116987
0.196923 -0.0494557 0.00117223
0.200048 -0.0494485 0.0011746
0.203172 -0.0494412 0.00117697
0.206296 -0.0494366 0.0011791
0.209421 -0.0494292 0.00118149
0.212545 -0.0494217 0.0011839
0.215669 -0.0494143 0.00118631
0.218794 -0.0494068 0.00118872
0.221919 -0.0494035 0.00119089
0.225045 -0.0493959 0.00119333
0.22817 -0.0493883 0.00119577
0.231296 -0.0493807 0.00119822
0.234421 -0.049373 0.00120067
0.237548 -0.0493682 0.00120286
0.240674 -0.0493604 0.00120534
0.2438 -0.0493526 0.00120781
0.246927 -0.0493448 0.0012103
0.250053 -0.049337 0.00121278
0.25318 -0.0493335 0.00121502
0.256307 -0.0493256 0.00121752
0.259434 -0.0493177 0.00122003
0.262561 -0.0493097 0.00122254
0.265688 -0.0493017 0.00122506
0.268813 -0.0492967 0.00122731
0.271938 -0.0492886 0.00122983
0.275062 -0.0492805 0.00123237
0.278187 -0.0492724 0.0012349
0.281312 -0.0492643 0.00123745
0.284435 -0.0492606 0.00123972
0.287558 -0.0492524 0.00124227
0.290681 -0.0492442 0.00124482
0.293804 -0.0492359 0.00124737
0.296927 -0.0492277 0.00124993
0.30005 -0.0492225 0.00125221
0.303174 -0.0492141 0.00125477
0.306297 -0.0492058 0.00125733
0.309421 -0.0491974 0.0012599
0.312544 -0.049189 0.00126248
0.315668 -0.0491853 0.00126478
0.318793 -0.0491768 0.00126735
0.321917 -0.0491683 0.00126993
0.325041 -0.0491598 0.00127251
0.328166 -0.0491512 0.0012751
0.331291 -0.0491459 0.00127739
0.334416 -0.0491373 0.00127997
0.337541 -0.0491287 0.00128256
0.340666 -0.0491201 0.00128515
0.343791 -0.0491114 0.00128775
0.346916 -0.0491076 0.00129006
0.350042 -0.0490989 0.00129265
0.353168 -0.0490901 0.00129524
0.356294 -0.0490814 0.00129784
0.35942 -0.0490726 0.00130044
0.362549 -0.0490671 0.00130275
0.365679 -0.0490583 0.00130534
0.368808 -0.0490494 0.00130794
0.371938 -0.0490406 0.00131054
0.375068 -0.0490317 0.00131315
0.378205 -0.0490277 0.00131548
0.381343 -0.0490188 0.00131808
0.384481 -0.0490098 0.00132068
0.387619 -0.0490009 0.00132329
0.390756 -0.0489919 0.00132591
0.393889 -0.0489863 0.00132821
0.397022 -0.0489773 0.0013308
0.400155 -0.0489682 0.00133339
0.403288 -0.0489592 0.001336
0.406421 -0.0489501 0.0013386
0.409551 -0.0489461 0.00134091
0.412682 -0.048937 0.0013435
0.415813 -0.0489279 0.00134608
0.418943 -0.0489188 0.00134868
0.422074 -0.0489096 0.00135128
0.425204 -0.048904 0.00135356
0.428334 -0.0488948 0.00135614
0.431464 -0.0488856 0.00135872
0.434594 -0.0488764 0.0013613
0.437724 -0.0488672 0.00136389
0.440854 -0.0488631 0.00136619
0.443984 -0.0488539 0.00136875
0.447114 -0.0488446 0.00137132
0.450244 -0.0488353 0.0013739
0.453374 -0.0488261 0.00137648
0.456504 -0.0488203 0.00137874
0.459634 -0.048811 0.0013813
0.462763 -0.0488017 0.00138386
0.465893 -0.0487923 0.00138642
0.469023 -0.048783 0.00138899
0.472152 -0.0487789 0.00139126
0.475282 -0.0487695 0.0013938
0.478411 -0.0487601 0.00139634
0.481541 -0.0487507 0.00139889
0.48467 -0.0487413 0.00140145
0.4878 -0.0487355 0.00140368
0.490929 -0.0487261 0.0014062
0.494058 -0.0487167 0.00140873
0.497187 -0.0487072 0.00141126
0.500317 -0.0486978 0.0014138
0.503446 -0.0486936 0.00141604
0.506575 -0.0486842 0.00141854
0.509704 -0.0486747 0.00142105
0.512833 -0.0486652 0.00142357
0.515962 -0.0486557 0.00142609
0.519091 -0.0486498 0.00142828
0.52222 -0.0486403 0.00143077
0.525348 -0.0486308 0.00143326
0.528477 -0.0486213 0.00143576
0.531606 -0.0486118 0.00143826
0.534734 -0.0486076 0.00144045
0.537863 -0.0485981 0.00144292
0.540992 -0.0485886 0.00144539
0.54412 -0.048579 0.00144786
0.547249 -0.0485694 0.00145034
0.550377 -0.0485635 0.00145249
0.553506 -0.048554 0.00145494
0.556634 -0.0485444 0.00145738
0.559762 -0.0485349 0.00145983
0.562891 -0.0485253 0.00146229
0.566019 -0.0485211 0.00146444
0.569147 -0.0485115 0.00146686
0.572275 -0.048502 0.00146928
0.575403 -0.0484924 0.00147171
0.578532 -0.0484828 0.00147414
0.58166 -0.0484768 0.00147625
0.584788 -0.0484673 0.00147864
0.587915 -0.0484577 0.00148104
0.591043 -0.0484481 0.00148344
0.594171 -0.0484385 0.00148585
0.597299 -0.0484343 0.00148796
0.600427 -0.0484247 0.00149034
0.603555 -0.0484151 0.00149272
0.606683 -0.0484056 0.0014951
[...]
POINT_DATA 15209
 FIELD attributes 2
p 1 15209 float
-4.94643 -4.948 -4.94957 -4.95114 -4.95271 -4.95428 -5.46664 -5.97826 -6.50038 -7.02251 -7.54163 -8.43385 -9.33102 -10.2282 -11.1234 -11.9764 -12.5526 -13.1422 -13.7319 -14.3215 -14.9792 -15.8111 -16.6348 -17.4585 -18.2823 -19.1027 -20.0584 -21.0118 -21.9651 -22.9185 -23.8777 -25.0441 -26.2016 -27.3591 -28.5166 -29.6769 -31.0777 -32.4783 -33.8789 -35.2795 -36.6961 -38.3559 -40.0066 -41.6574 -43.3081 -44.97 -46.801 -48.633 -50.4651 -52.2971 -54.4359 -55.2616 -56.1221 -57.0859 -58.0496 -59.0314 -59.9304 -60.8275 -61.7245 -62.6343 -63.5406 -64.2889 -65.0386 -65.7769 -66.5152 -67.2565 -67.8885 -68.5285 -69.1684 -69.815 -70.4706 -71.0038 -71.5375 -72.0524 -72.5566 -73.0221 -73.1232 -73.2806 -73.438 -73.5953 -73.8166 -73.959 -74.1132 -74.2674 -74.4217 -74.604 -74.7014 -74.809 -74.9167 -75.0243 -75.1563 -75.217 -75.2779 -75.3387 -75.3996 -75.4658 -75.478 -75.4925 -75.5069 -75.5214 -75.5398 -75.5085 -75.4766 -75.4446 -75.4127 -75.3818 -75.305 -75.2282 -75.1514 -75.0746 -74.9988 -74.8809 -74.7612 -74.6415 -74.5218 -74.4013 -74.2418 -74.0812 -73.9206 -73.76 -73.5992 -73.4026 -73.2031 -73.0036 -72.8041 -72.603 -72.3686 -72.1324 -71.8962 -71.66 -71.4232 -71.1565 -70.8861 -70.6157 -70.3453 -70.0731 -69.7734 -69.4716 -69.1698 -68.868 -68.5657 -68.2397 -67.9097 -67.5797 -67.2497 -66.9179 -66.5649 -66.2096 -65.8544 -65.4991 -65.1437 -64.7701 -64.3924 -64.0147 -63.637 -63.2574 -62.8625 -62.4653 -62.0682 -61.6711 -61.2737 -60.8647 -60.4516 -60.0386 -59.6255 -59.2106 -58.7866 -58.3604 -57.9343 -57.5081 -57.0816 -56.649 -56.2123 -55.7757 -55.339 -54.9006 -54.4585 -54.0142 -53.5699 -53.1256 -52.6811 -52.2358 -51.7867 -51.3377 -50.8886 -50.4381 -49.9888 -49.5376 -49.0863 -48.635 -48.1836 -47.7358 -47.2843 -46.8329 -46.3814 -45.9285 -45.4807 -45.0309 -44.581 -44.1312 -43.6811 -43.2383 -42.792 -42.3457 -41.8994 -41.4518 -41.0129 -40.5721 -40.1313 -39.6906 -39.2496 -38.8194 -38.386 -37.9526 -37.5192 -37.0846 -36.6618 -36.2371 -35.8125 -35.3878 -34.9629 -34.5508 -34.1358 -33.7209 -33.3059 -32.8898 -32.4871 -32.0827 -31.6782 -31.2738 -30.8688 -30.4783 -30.0851 -29.6919 -29.2986 -28.9042 -28.5247 -28.1434 -27.7621 -27.3807 -26.9988 -26.6322 -26.2632 -25.8942 -25.5252 -25.1551 -24.8005 -24.4441 -24.0878 -23.7314 -23.3744 -23.0341 -22.6916 -22.3492 -22.0067 -21.663 -21.3364 -21.008 -20.6797 -20.3514 -20.0223 -19.7103 -19.3961 -19.082 -18.7679 -18.4526 -18.1542 -17.8541 -17.554 -17.2539 -16.9529 -16.6687 -16.3825 -16.0963 -15.81 -15.5225 -15.2517 -14.9791 -14.7066 -14.434 -14.1602 -13.9031 -13.644 -13.3849 -13.1258 -12.8653 -12.6212 -12.3754 -12.1296 -11.8838 -11.6368 -11.4059 -11.173 -10.9402 -10.7073 -10.4731 -10.2545 -10.0341 -9.81368 -9.59327 -9.37149 -9.16494 -8.95623 -8.74753 -8.53882 -8.32851 -8.13262 -7.9343 -7.73599 -7.53768 -7.33774 -7.15181 -6.96292 -6.77403 -6.58514 -6.39452 -6.21821 -6.04199 -5.86577 -5.68955 -5.51378 -5.35138 -5.19007 -5.02875 -4.86744 -4.70709 -4.55736 -4.40741 -4.25747 -4.10752 -3.95755 -3.81696 -3.67505 -3.53315 -3.39124 -3.2486 -3.11622 -2.9846 -2.85299 -2.72138 -2.59052 -2.47094 -2.35331 -2.23568 -2.11805 -2.00137 -1.89449 -1.78545 -1.67642 -1.56738 -1.4556 -1.35268 -1.24663 -1.14059 -1.03455 -0.925555 -0.826853 -0.726031 -0.625208 -0.52438 -0.421774 -0.329934 -0.236544 -0.143155 -0.0497663 0.0448717 0.129563 0.215572 0.301581 0.38759 0.47478 0.552853 0.632222 0.71159 0.790958 0.871495 0.943607 1.01684 1.09007 1.1633 1.23759 1.30396 1.37143 1.4389 1.50638 1.57489 1.63601 1.6981 1.7602 1.82229 1.88531 1.94139 1.99838 2.05537 2.11236 2.17022 2.22158 2.27373 2.32587 2.37801 2.43089 2.47772 2.52532 2.57291 2.6205 2.66886 2.71147 2.75472 2.79797 2.84122 2.88512 2.92358 2.96266 3.00175 3.04084 3.08061 3.11513 3.15016 3.1852 3.22023 3.25584 3.28641 3.31755 3.34869 3.37983 3.41154 3.43862 3.46622 3.49382 3.52141 3.54961 3.57313 3.59649 3.61985 3.6432 3.6667 3.68554 3.70489 3.72423 3.74357 3.76486 3.78273 3.80149 3.82025 3.83901 3.85762 3.88521 3.92422 3.96179 3.99831 4.03325 4.05716 4.08252 4.10659 4.1291 4.1535 4.16616 4.1777 4.19017 4.20347 4.21837 4.23126 4.25298 4.27378 4.29358 4.32174 4.35181 4.39915 4.45299 4.50682 4.55224 4.57636 4.5986 4.62164 4.64467 4.66284 4.67567 4.68423 4.6928 4.70071 4.70246 4.69041 4.67595 4.66201 4.64807 4.62967 4.59142 4.54913 4.50685 4.46292 4.41174 4.36034 4.32544 4.29372 4.262 4.23574 4.06433 4.05804 4.05041 4.04278 4.02907 4.04262 4.0445 4.04638 4.05046 4.0425 3.97857 3.89548 3.77582 3.65616 3.52473 3.29055 3.05066 2.81078 2.63396 2.46203 2.26944 2.09905 1.92866 1.71816 1.64247 1.81616 1.9854 2.15465 2.32389 2.3087 2.23241 2.15055 2.0687 1.98684 1.89606 1.59294 1.29503 0.997121 0.699213 0.496084 0.280079 0.0856458 -0.108789 -0.303226 -0.390785 -0.215441 -0.0359772 0.143484 0.322943 0.437514 0.599076 0.766349 0.933622 1.1009 1.25822 1.35765 1.44413 1.53062 1.6171 1.69379 1.64153 1.57746 1.51338 1.44931 1.31228 1.17255 1.02347 0.874394 0.725316 0.596816 0.515964 0.430663 0.345362 0.260061 0.188557 0.175172 0.159119 0.143067 0.127015 0.114268 0.113828 0.111251 0.108675 0.106099 0.104383 0.101722 0.0973648 0.0930073 0.0886501 0.0850347 0.0827798 0.0792138 0.0756478 0.072082 0.0690213 0.0680171 0.0659379 0.0638588 0.0617798 0.0600267 0.0604799 0.0600851 0.0596903 0.0592956 0.0592617 0.0540901 0.0480729 0.0420868 0.0361323 0.0311666
-4.75795 -4.75951 -4.76106 -4.76262 -4.76417 -4.76573 -5.29415 -5.82256 -6.33744 -6.79139 -7.24532 -8.03023 -8.81526 -9.64736 -10.9232 -12.1596 -12.6263 -13.1275 -13.6286 -14.1298 -14.791 -15.6225 -16.422 -17.2215 -18.0211 -18.8123 -19.7886 -20.742 -21.6953 -22.6486 -23.5865 -24.7452 -25.9219 -27.0986 -28.2753 -29.4657 -30.8783 -32.3285 -33.7786 -35.2287 -36.6876 -38.3121 -40.0416 -41.7712 -43.5011 -45.2825 -47.12 -49.1363 -51.1528 -53.1873 -55.6632 -56.547 -57.43 -58.4489 -59.3794 -60.296 -61.3107 -62.316 -63.237 -64.0523 -64.855 -65.6836 -66.5109 -67.3129 -68.0545 -68.7906 -69.4894 -70.1875 -70.8776 -71.5221 -72.162 -72.7216 -73.2799 -73.8187 -74.3818 -74.9523 -75.0713 -75.2262 -75.3771 -75.5281 -75.737 -75.8736 -76.0217 -76.1699 -76.3257 -76.513 -76.6229 -76.731 -76.8332 -76.9355 -77.0501 -77.1052 -77.1626 -77.22 -77.2803 -77.3476 -77.3582 -77.371 -77.3833 -77.3956 -77.4118 -77.3776 -77.3454 -77.3133 -77.2812 -77.2507 -77.169 -77.089 -77.0102 -76.9314 -76.8539 -76.729 -76.6057 -76.4824 -76.3566 -76.2302 -76.0589 -75.8895 -75.7242 -75.5589 -75.3941 -75.1875 -74.9823 -74.7771 -74.5662 -74.3543 -74.1028 -73.8526 -73.6095 -73.3664 -73.1235 -72.8574 -72.5918 -72.3263 -72.0533 -71.7958 -71.7795 -71.7632 -71.747 -71.7307 -71.7145 -71.3931 -71.0718 -70.7607 -70.4498 -70.1391 -69.7987 -69.4593 -69.1185 -68.7682 -68.4196 -68.0421 -67.6653 -67.2973 -66.9318 -66.5669 -66.1758 -65.7875 -65.3949 -64.9946 -64.5978 -64.176 -63.756 -63.3421 -62.9338 -62.5269 -62.0972 -61.6727 -61.2409 -60.8043 -60.3739 -59.9216 -59.4726 -59.0264 -58.5888 -58.154 -57.6981 -57.2506 -56.7926 -56.3331 -55.8829 -55.4115 -54.9452 -54.479 -54.0234 -53.5726 -53.101 -52.6392 -52.1681 -51.697 -51.2382 -50.7582 -50.2859 -49.8136 -49.3476 -48.892 -48.415 -47.9481 -47.4758 -47.0035 -46.5469 -46.0674 -45.5981 -45.1288 -44.6622 -44.2113 -43.7369 -43.2735 -42.8083 -42.343 -41.8967 -41.4252 -40.9668 -40.5084 -40.05 -39.6116 -39.1481 -38.6987 -38.2494 -37.8 -37.367 -36.9153 -36.4755 -36.0358 -35.5959 -35.1676 -34.7284 -34.2989 -33.8695 -33.4402 -33.0194 -32.595 -32.1772 -31.7594 -31.3413 -30.9268 -30.5163 -30.1102 -29.7046 -29.2989 -28.8942 -28.8008 -28.7081 -28.6154 -28.5227 -28.4301 -28.1292 -27.8282 -27.5273 -27.2254 -26.9238 -26.5402 -26.1587 -25.7778 -25.3969 -25.0166 -24.6469 -24.2803 -23.9137 -23.5465 -23.1808 -22.8242 -22.4721 -22.1207 -21.7693 -21.42 -21.0776 -20.741 -20.4045 -20.0672 -19.7331 -19.4042 -19.0817 -18.7599 -18.4382 -18.1196 -17.8053 -17.4974 -17.1902 -16.8831 -16.579 -16.2797 -15.9846 -15.692 -15.4006 -15.1113 -14.8266 -14.5452 -14.2669 -13.9902 -13.7151 -13.4452 -13.177 -12.9129 -12.6514 -12.3908 -12.135 -11.8799 -11.6296 -11.3824 -11.1356 -10.8939 -10.6523 -10.4157 -10.1828 -9.94991 -9.72149 -9.49308 -9.26936 -9.04929 -8.82923 -8.61415 -8.39908 -8.18815 -7.98128 -7.77441 -7.57164 -7.36887 -7.17022 -6.97539 -6.78055 -6.59049 -6.40043 -6.21412 -6.03169 -5.84927 -5.67077 -5.49228 -5.3177 -5.14651 -4.97533 -4.80886 -4.64285 -4.4798 -4.31962 -4.1601 -4.00419 -3.84939 -3.69726 -3.54703 -3.39782 -3.25288 -3.10944 -2.9677 -2.82748 -2.68905 -2.55342 -2.42013 -2.28822 -2.1571 -2.02792 -1.90219 -1.77893 -1.65633 -1.53411 -1.4147 -1.29714 -1.18321 -1.06944 -0.955638 -0.844348 -0.736064 -0.630533 -0.525015 -0.419502 -0.316288 -0.215772 -0.11802 -0.0202676 0.077498 0.173814 0.26607 0.356578 0.447028 0.53747 0.626778 0.71187 0.795439 0.879011 0.962724 1.04587 1.12388 1.20114 1.2782 1.35525 1.43206 1.47687 1.52132 1.56577 1.61022 1.65509 1.68171 1.70833 1.73495 1.76158 1.78764 1.8539 1.91967 1.9852 2.05073 2.11439 2.17604 2.23608 2.29611 2.35634 2.41317 2.4711 2.52614 2.58102 2.6359 2.68641 2.74027 2.7904 2.84053 2.89079 2.93511 2.98608 3.03191 3.07761 3.1233 3.16225 3.20956 3.2511 3.29264 3.33434 3.36765 3.41259 3.45036 3.48796 3.52485 3.55427 3.59485 3.62973 3.66358 3.69556 3.72084 3.75854 3.79124 3.82169 3.84916 3.8716 3.90543 3.93505 3.96196 3.98566 4.00438 4.0358 4.06204 4.08606 4.10769 4.12417 4.15282 4.17649 4.19809 4.21721 4.23105 4.26172 4.28122 4.29646 4.30873 4.31024 4.34637 4.37297 4.4011 4.43298 4.45525 4.48947 4.51492 4.54037 4.56623 4.58748 4.61763 4.63883 4.65872 4.67861 4.69475 4.71141 4.72335 4.73529 4.74724 4.76111 4.7879 4.81468 4.81842 4.78278 4.74715 4.83736 4.92756 4.95093 4.90827 4.86559 4.93724 5.00891 5.01477 4.95251 4.89026 4.95427 5.01828 5.0067 4.91955 4.83239 4.86894 4.9055 4.87459 4.77392 4.67325 4.74251 4.81177 4.76727 4.61703 4.46678 4.37517 4.29901 4.24191 4.18482 4.10381 4.23845 4.25199 4.26536 4.27874 4.16267 4.21238 4.10268 3.99298 3.88965 3.69097 3.53226 3.34453 3.14709 2.94964 2.74478 2.30247 1.89751 1.54305 1.34128 1.31973 1.53474 1.69924 1.96855 2.37108 2.60582 2.73256 2.76023 2.74493 2.66862 2.51071 2.17158 1.88053 1.59261 1.3057 1.07624 0.71452 0.536628 -0.021953 -0.507829 -0.617336 -0.470375 -0.293216 -0.116087 0.0282793 0.120281 0.195511 0.241853 0.401016 0.560137 0.667755 0.814441 0.892183 0.969887 1.05367 1.07981 1.0561 0.979652 0.902984 0.994892 1.05635 1.07261 0.922884 0.772799 0.622712 0.454522 0.454348 0.370449 0.28465 0.198848 0.107116 0.125491 0.110427 0.0940129 0.0775985 0.0558763 0.0740585 0.0723144 0.0694555 0.0665962 0.0591348 0.0702522 0.0667905 0.0622192 0.0576475 0.0497461 0.0570587 0.0542945 0.050564 0.0468332 0.0407097 0.0469092 0.0455818 0.0433734 0.0411648 0.0371272 0.0435331 0.0439208 0.043428 0.042935 0.0411622 0.0476466 0.0437034 0.037605 0.0314969 0.024607
-4.56549 -4.56699 -4.56849 -4.56999 -4.57149 -4.57299 -5.08713 -5.56001 -6.03293 -6.50384 -6.96221 -7.77042 -8.65198 -9.53354 -10.3577 -11.4977 -12.0021 -12.5198 -13.0375 -13.5469 -14.1445 -14.9571 -15.7381 -16.4917 -17.2455 -17.9919 -18.9642 -19.913 -20.862 -21.815 -22.756 -23.9527 -25.144 -26.363 -27.5821 -28.7936 -30.2871 -31.8609 -33.4348 -34.9139 -36.4574 -38.277 -40.0486 -42.0037 -43.9572 -45.8409 -47.9044 -50.2045 -52.5122 -54.8078 -57.5992 -58.5019 -59.4429 -60.3794 -61.273 -62.4729 -63.6033 -64.6503 -65.6766 -66.7061 -67.7925 -68.7901 -69.7037 -70.6137 -71.5371 -72.5381 -73.3917 -74.1848 -74.9703 -75.7582 -76.6095 -77.3101 -77.9249 -78.5403 -79.2992 -80.0061 -80.1554 -80.3433 -80.5291 -80.7104 -80.944 -81.1094 -81.2974 -81.48 -81.6594 -81.8628 -81.9924 -82.1251 -82.2624 -82.4051 -82.5511 -82.6356 -82.7215 -82.8047 -82.8848 -82.9681 -82.9863 -83.0071 -83.0294 -83.053 -83.0781 -83.0503 -83.0222 -82.9951 -82.9692 -82.9445 -82.8614 -82.7804 -82.6946 -82.6075 -82.5217 -82.3804 -82.2383 -82.0972 -81.9657 -81.8345 -81.6535 -81.4742 -81.2825 -81.0912 -80.9014 -80.6609 -80.4196 -80.1786 -79.952 -79.7295 -79.464 -79.1935 -78.9119 -78.6306 -78.3498 -78.1941 -78.0384 -77.8828 -77.7272 -77.5765 -77.4091 -77.2417 -77.0794 -76.9201 -76.7607 -76.4222 -76.0682 -75.7083 -75.3486 -74.9904 -74.5989 -74.2074 -73.8162 -73.4251 -73.0525 -72.6482 -72.2272 -71.8063 -71.3857 -70.9688 -70.5247 -70.0806 -69.6366 -69.1928 -68.7559 -68.2928 -67.8273 -67.3626 -66.8982 -66.4355 -66.2737 -66.1119 -65.95 -65.7882 -65.6307 -65.3114 -64.9921 -64.6728 -64.3537 -64.034 -63.5352 -63.0421 -62.5491 -62.0563 -61.5627 -61.0496 -60.5481 -60.0467 -59.5455 -59.0369 -58.5062 -57.997 -57.4878 -56.9788 -56.4696 -55.943 -55.4318 -54.9207 -54.4012 -53.8804 -53.342 -52.8176 -52.3047 -51.7919 -51.2793 -50.7506 -50.2397 -49.729 -49.196 -48.6808 -48.1491 -47.6218 -47.1102 -46.6026 -46.0962 -45.5759 -45.076 -44.5642 -44.0427 -43.5426 -43.0272 -42.5168 -42.0077 -41.5151 -41.0238 -40.5193 -40.0321 -39.5305 -39.0308 -38.5507 -38.0568 -37.5683 -37.0807 -36.5983 -36.1294 -35.6492 -35.1743 -34.7005 -34.2267 -33.7699 -33.3041 -32.8446 -32.3852 -31.9252 -31.4736 -31.0243 -30.5786 -30.1335 -29.6885 -29.2452 -29.1389 -29.0334 -28.9278 -28.8223 -28.717 -28.3916 -28.0662 -27.7408 -27.414 -27.0891 -26.668 -26.2528 -25.8386 -25.4243 -25.0137 -24.6046 -24.2077 -23.8109 -23.413 -23.0228 -22.6269 -22.2445 -21.8652 -21.4882 -21.1155 -20.7383 -20.3676 -20.0056 -19.6486 -19.2939 -18.9345 -18.5769 -18.2326 -17.894 -17.5566 -17.2151 -16.8756 -16.5457 -16.2239 -15.9037 -15.5796 -15.2559 -14.941 -14.6375 -14.3344 -14.0272 -13.7212 -13.4234 -13.134 -12.8475 -12.5573 -12.2718 -11.991 -11.7132 -11.4435 -11.1695 -10.9032 -10.6388 -10.3746 -10.1197 -9.86417 -9.616 -9.36764 -9.11868 -8.8751 -8.6376 -8.40397 -8.17085 -7.93795 -7.70586 -7.65892 -7.61267 -7.56643 -7.52019 -7.47384 -7.30041 -7.12697 -6.95302 -6.77906 -6.60793 -6.39852 -6.19204 -5.98588 -5.77998 -5.58043 -5.38109 -5.18875 -4.99614 -4.80328 -4.62 -4.43206 -4.25121 -4.07161 -3.89553 -3.72635 -3.55046 -3.37877 -3.21158 -3.05069 -2.89308 -2.73021 -2.56789 -2.41266 -2.26776 -2.12287 -1.9709 -1.81888 -1.67552 -1.54073 -1.40596 -1.26565 -1.12535 -0.99337 -0.870022 -0.746689 -0.615763 -0.485011 -0.364035 -0.249158 -0.134939 -0.0147745 0.1023 0.21364 0.321193 0.425292 0.537301 0.642774 0.745111 0.846523 0.942827 1.04517 1.13901 1.23286 1.3267 1.41532 1.5076 1.59346 1.67932 1.76521 1.84886 1.93026 2.0088 2.08721 2.16561 2.24379 2.25099 2.25791 2.26483 2.27175 2.27868 2.34442 2.41016 2.47589 2.54177 2.60484 2.67332 2.73969 2.80591 2.87212 2.93338 2.99704 3.05715 3.11725 3.17748 3.22904 3.2895 3.34429 3.39862 3.4511 3.49748 3.55125 3.60223 3.65088 3.6956 3.7358 3.78569 3.83092 3.87449 3.91547 3.95202 3.99596 4.03674 4.0755 4.1104 4.14152 4.1823 4.21708 4.25072 4.28374 4.31177 4.34721 4.37907 4.40791 4.43519 4.4583 4.49102 4.51695 4.54152 4.56711 4.58745 4.61535 4.63834 4.65928 4.67984 4.69591 4.7217 4.73998 4.75783 4.77586 4.78948 4.81072 4.82541 4.84 4.85459 4.86572 4.88328 4.89469 4.9061 4.91751 4.92719 4.93908 4.94599 4.9529 4.95982 4.96584 4.98932 5.01366 5.02917 5.03857 5.04555 5.06866 5.08671 5.09699 5.10629 5.11047 5.12071 5.12232 5.12394 5.13061 5.13346 5.13801 5.13687 5.13263 5.12839 5.12035 5.09401 5.03126 4.99957 4.99193 4.97599 5.00671 5.01779 5.02738 5.03537 5.0407 5.04291 5.04151 5.04012 5.03873 5.03734 5.0375 5.03765 5.04022 5.04287 5.01975 5.02282 5.00473 4.98424 4.96191 4.89213 4.89045 4.84883 4.81017 4.77602 4.66526 4.67621 4.64175 4.59577 4.53645 4.40336 4.26896 4.20464 4.13846 4.05532 3.89 4.21406 4.29222 4.33493 4.34286 4.13808 4.3074 4.21187 4.08539 3.93781 3.53935 3.58101 3.21961 2.85825 2.50327 2.07451 1.72229 1.53326 1.34428 1.15533 1.03462 1.04933 1.0572 1.06506 1.07293 1.11762 1.48646 1.85548 2.22469 2.59409 2.59405 3.21239 3.2963 3.33743 3.2777 2.59301 2.92578 2.60591 2.28634 1.96708 1.2963 0.498639 -0.207702 -0.45488 -0.700944 -0.83241 -0.68396 -0.527983 -0.409058 -0.290063 -0.198002 -0.137157 -0.150761 -0.164356 -0.116274 -0.0106596 0.120877 0.196677 0.27488 0.353624 0.378534 0.336627 0.429885 0.543287 0.658912 0.722718 0.7357 0.722054 0.586933 0.436051 0.268217 0.266493 0.253982 0.179722 0.0934683 0.0016435 0.0191199 0.029781 0.0188314 0.00209982 -0.0196332 -0.00209869 0.0101075 0.0109832 0.00788234 0.000428513 0.0110772 0.0178261 0.0166202 0.0118634 0.00394341 0.0109201 0.0150917 0.0140927 0.0102164 0.00405636 0.0100061 0.0138165 0.0139856 0.0116619 0.00758397 0.0138078 0.0184938 0.0203099 0.0197283 0.0179126 0.0242628 0.0294103 0.0289654 0.0228377 0.0159554