# vtk DataFile Version 2.0
track0
ASCII
DATASET POLYDATA
POINTS 15780 float
-1.001 -0.05 0.0011
-1.0008 -0.05 0.0011
-1.0006 -0.05 0.0011
-1.0004 -0.05 0.0011
-1.0002 -0.05 0.0011
-1 -0.05 0.0011
-0.9875 -0.05 0.0011
-0.975 -0.05 0.0011
-0.9625 -0.05 0.0011
-0.95 -0.05 0.0011
-0.9375 -0.05 0.00109999
-0.925 -0.05 0.00109999
-0.9125 -0.05 0.00109999
-0.9 -0.05 0.00109999
-0.8875 -0.05 0.00109999
-0.875 -0.05 0.00109999
-0.8625 -0.05 0.00109999
-0.85 -0.05 0.00109999
-0.8375 -0.05 0.00109998
-0.825 -0.0500001 0.00109998
-0.8125 -0.0500001 0.00109998
-0.8 -0.0500001 0.00109998
-0.7875 -0.0500001 0.00109998
-0.775 -0.0500001 0.00109998
-0.7625 -0.0500001 0.00109998
-0.75 -0.0500001 0.00109998
-0.7375 -0.0500001 0.00109997
-0.725 -0.0500001 0.00109997
-0.7125 -0.0500001 0.00109997
-0.7 -0.0500001 0.00109997
-0.6875 -0.0500001 0.00109997
-0.675 -0.0500001 0.00109997
-0.6625 -0.0500001 0.00109997
-0.65 -0.0500001 0.00109996
-0.6375 -0.0500001 0.00109996
-0.625 -0.0500001 0.00109996
-0.6125 -0.0500001 0.00109996
-0.6 -0.0500001 0.00109996
-0.5875 -0.0500001 0.00109996
-0.575 -0.0500001 0.00109996
-0.5625 -0.0500001 0.00109996
-0.55 -0.0500001 0.00109995
-0.5375 -0.0500001 0.00109995
-0.525 -0.0500001 0.00109995
-0.5125 -0.0500001 0.00109995
-0.5 -0.0500001 0.00109995
-0.4875 -0.0500001 0.00109995
-0.475 -0.0500001 0.00109995
-0.4625 -0.0500001 0.00109994
-0.45 -0.0500002 0.00109994
-0.4375 -0.0500002 0.00109994
-0.425 -0.0500002 0.00109994
-0.4125 -0.0500002 0.00109994
-0.4 -0.0500002 0.00109994
-0.3875 -0.0500002 0.00109994
-0.375 -0.0500002 0.00109994
-0.3625 -0.0500002 0.00109993
-0.35 -0.0500002 0.00109993
-0.3375 -0.0500002 0.00109993
-0.325 -0.0500002 0.00109993
-0.3125 -0.0500002 0.00109993
-0.3 -0.0500002 0.00109993
-0.2875 -0.0500002 0.00109993
-0.275 -0.0500002 0.00109993
-0.2625 -0.0500002 0.00109992
-0.25 -0.0500002 0.00109992
-0.2375 -0.0500002 0.00109992
-0.225 -0.0500002 0.00109992
-0.2125 -0.0500002 0.00109992
-0.2 -0.0500002 0.00109992
-0.1875 -0.0500002 0.00109992
-0.175 -0.0500002 0.00109992
-0.1625 -0.0500002 0.00109991
-0.15 -0.0500002 0.00109991
-0.1375 -0.0500002 0.00109991
-0.125 -0.0500002 0.00109991
-0.1125 -0.0500002 0.00109991
-0.1 -0.0500002 0.00109991
-0.0875 -0.0500002 0.00109991
-0.075 -0.0500002 0.00109991
-0.0625 -0.0500002 0.00109991
-0.05 -0.0500003 0.00109991
-0.0375 -0.0500003 0.0010999
-0.025 -0.0500003 0.0010999
-0.0125 -0.0500003 0.0010999
2.10607e-13 -0.0500003 0.0010999
0.0125 -0.0500003 0.0010999
0.025 -0.0500003 0.0010999
0.0375 -0.0500003 0.0010999
0.05 -0.0500003 0.0010999
0.0625 -0.0500003 0.0010999
0.075 -0.0500003 0.0010999
0.0875 -0.0500003 0.0010999
0.1 -0.0500003 0.00109989
0.1125 -0.0500003 0.00109989
0.125 -0.0500003 0.00109989
0.1375 -0.0500003 0.00109989
0.15 -0.0500003 0.00109989
0.1625 -0.0500003 0.00109989
0.175 -0.0500003 0.00109989
0.1875 -0.0500003 0.00109989
0.2 -0.0500003 0.00109989
0.2125 -0.0500003 0.00109989
0.225 -0.0500003 0.00109989
0.2375 -0.0500003 0.00109989
0.25 -0.0500003 0.00109989
0.2625 -0.0500003 0.00109988
0.275 -0.0500003 0.00109988
0.2875 -0.0500003 0.00109988
0.3 -0.0500003 0.00109988
0.3125 -0.0500003 0.00109988
0.325 -0.0500003 0.00109988
0.3375 -0.0500003 0.00109988
0.35 -0.0500003 0.00109988
0.3625 -0.0500003 0.00109988
0.375 -0.0500003 0.00109988
0.3875 -0.0500003 0.00109988
0.4 -0.0500004 0.00109988
0.4125 -0.0500004 0.00109988
0.425 -0.0500004 0.00109988
0.4375 -0.0500004 0.00109988
0.45 -0.0500004 0.00109988
0.4625 -0.0500004 0.00109988
0.475 -0.0500004 0.00109988
0.4875 -0.0500004 0.00109988
0.5 -0.0500004 0.00109988
0.5125 -0.0500004 0.00109988
0.525 -0.0500004 0.00109988
0.5375 -0.0500004 0.00109988
0.55 -0.0500004 0.00109988
0.5625 -0.0500004 0.00109988
0.575 -0.0500004 0.00109987
0.5875 -0.0500004 0.00109987
0.6 -0.0500004 0.00109987
0.6125 -0.0500004 0.00109987
0.625 -0.0500004 0.00109987
0.6375 -0.0500004 0.00109987
0.65 -0.0500004 0.00109987
0.6625 -0.0500004 0.00109987
0.675 -0.0500004 0.00109987
0.6875 -0.0500004 0.00109987
0.7 -0.0500004 0.00109987
0.7125 -0.0500004 0.00109987
0.725 -0.0500004 0.00109987
0.7375 -0.0500004 0.00109987
0.75 -0.0500004 0.00109987
0.7625 -0.0500004 0.00109987
0.775 -0.0500004 0.00109987
0.7875 -0.0500004 0.00109987
0.8 -0.0500004 0.00109987
0.8125 -0.0500004 0.00109987
0.825 -0.0500004 0.00109987
0.8375 -0.0500004 0.00109987
0.85 -0.0500004 0.00109987
0.8625 -0.0500004 0.00109987
0.875 -0.0500004 0.00109987
0.8875 -0.0500004 0.00109987
0.9 -0.0500004 0.00109987
0.9125 -0.0500005 0.00109988
0.925 -0.0500005 0.00109988
0.9375 -0.0500005 0.00109988
0.95 -0.0500005 0.00109988
0.9625 -0.0500005 0.00109988
0.975 -0.0500005 0.00109988
0.9875 -0.0500005 0.00109988
1 -0.0500005 0.00109988
1.0125 -0.0500005 0.00109988
1.025 -0.0500005 0.00109988
1.0375 -0.0500005 0.00109988
1.05 -0.0500005 0.00109988
1.0625 -0.0500005 0.00109988
1.075 -0.0500005 0.00109988
1.0875 -0.0500005 0.00109988
1.1 -0.0500005 0.00109988
1.1125 -0.0500005 0.00109988
1.125 -0.0500005 0.00109988
1.1375 -0.0500005 0.00109988
1.15 -0.0500005 0.00109988
1.1625 -0.0500005 0.00109988
1.175 -0.0500005 0.00109988
1.1875 -0.0500005 0.00109988
1.2 -0.0500005 0.00109988
1.2125 -0.0500005 0.00109988
1.225 -0.0500005 0.00109988
1.2375 -0.0500005 0.00109989
1.25 -0.0500005 0.00109989
1.2625 -0.0500005 0.00109989
1.275 -0.0500005 0.00109989
1.2875 -0.0500005 0.00109989
1.3 -0.0500005 0.00109989
1.3125 -0.0500005 0.00109989
1.325 -0.0500005 0.00109989
1.3375 -0.0500005 0.00109989
1.35 -0.0500005 0.00109989
1.3625 -0.0500005 0.00109989
1.375 -0.0500005 0.00109989
1.3875 -0.0500005 0.00109989
1.4 -0.0500005 0.00109989
1.4125 -0.0500005 0.00109989
1.425 -0.0500005 0.00109989
1.4375 -0.0500005 0.0010999
1.45 -0.0500005 0.0010999
1.4625 -0.0500005 0.0010999
1.475 -0.0500005 0.0010999
1.4875 -0.0500005 0.0010999
1.5 -0.0500006 0.0010999
1.5125 -0.0500006 0.0010999
1.525 -0.0500006 0.0010999
1.5375 -0.0500006 0.0010999
1.55 -0.0500006 0.0010999
1.5625 -0.0500006 0.0010999
1.575 -0.0500006 0.0010999
1.5875 -0.0500006 0.0010999
1.6 -0.0500006 0.0010999
1.6125 -0.0500006 0.00109991
1.625 -0.0500006 0.00109991
1.6375 -0.0500006 0.00109991
1.65 -0.0500006 0.00109991
1.6625 -0.0500006 0.00109991
1.675 -0.0500006 0.00109991
1.6875 -0.0500006 0.00109991
1.7 -0.0500006 0.00109991
1.7125 -0.0500006 0.00109991
1.725 -0.0500006 0.00109991
1.7375 -0.0500006 0.00109991
1.75 -0.0500006 0.00109991
1.7625 -0.0500006 0.00109992
1.775 -0.0500006 0.00109992
1.7875 -0.0500006 0.00109992
1.8 -0.0500006 0.00109992
1.8125 -0.0500006 0.00109992
1.825 -0.0500006 0.00109992
1.8375 -0.0500006 0.00109992
1.85 -0.0500006 0.00109992
1.8625 -0.0500006 0.00109992
1.875 -0.0500006 0.00109992
1.8875 -0.0500006 0.00109992
1.9 -0.0500006 0.00109992
1.9125 -0.0500006 0.00109993
1.925 -0.0500006 0.00109993
1.9375 -0.0500006 0.00109993
1.95 -0.0500006 0.00109993
1.9625 -0.0500006 0.00109993
1.975 -0.0500006 0.00109993
1.9875 -0.0500006 0.00109993
2 -0.0500006 0.00109993
2.0125 -0.0500006 0.00109993
2.025 -0.0500006 0.00109993
2.0375 -0.0500006 0.00109993
2.05 -0.0500006 0.00109993
2.0625 -0.0500006 0.00109993
2.075 -0.0500006 0.00109994
2.0875 -0.0500006 0.00109994
2.1 -0.0500006 0.00109994
2.1125 -0.0500006 0.00109994
2.125 -0.0500006 0.00109994
2.1375 -0.0500006 0.00109994
2.15 -0.0500006 0.00109994
2.1625 -0.0500006 0.00109994
2.175 -0.0500007 0.00109994
2.1875 -0.0500007 0.00109994
2.2 -0.0500007 0.00109994
2.2125 -0.0500007 0.00109994
2.225 -0.0500007 0.00109995
2.2375 -0.0500007 0.00109995
2.25 -0.0500007 0.00109995
2.2625 -0.0500007 0.00109995
2.275 -0.0500007 0.00109995
2.2875 -0.0500007 0.00109995
2.3 -0.0500007 0.00109995
2.3125 -0.0500007 0.00109995
2.325 -0.0500007 0.00109995
2.3375 -0.0500007 0.00109995
2.35 -0.0500007 0.00109995
2.3625 -0.0500007 0.00109995
2.375 -0.0500007 0.00109995
2.3875 -0.0500007 0.00109996
2.4 -0.0500007 0.00109996
2.4125 -0.0500007 0.00109996
2.425 -0.0500007 0.00109996
2.4375 -0.0500007 0.00109996
2.45 -0.0500007 0.00109996
2.4625 -0.0500007 0.00109996
2.475 -0.0500007 0.00109996
2.4875 -0.0500007 0.00109996
2.5 -0.0500007 0.00109996
2.5125 -0.0500007 0.00109996
2.525 -0.0500007 0.00109996
2.5375 -0.0500007 0.00109996
2.55 -0.0500007 0.00109996
2.5625 -0.0500007 0.00109997
2.575 -0.0500007 0.00109997
2.5875 -0.0500007 0.00109997
2.6 -0.0500007 0.00109997
2.6125 -0.0500007 0.00109997
2.625 -0.0500007 0.00109997
2.6375 -0.0500007 0.00109997
2.65 -0.0500007 0.00109997
2.6625 -0.0500007 0.00109997
2.675 -0.0500007 0.00109997
2.6875 -0.0500007 0.00109997
2.7 -0.0500007 0.00109997
2.7125 -0.0500007 0.00109997
2.725 -0.0500007 0.00109997
2.7375 -0.0500007 0.00109997
2.75 -0.0500007 0.00109997
2.7625 -0.0500007 0.00109998
2.775 -0.0500007 0.00109998
2.7875 -0.0500007 0.00109998
2.8 -0.0500007 0.00109998
2.8125 -0.0500007 0.00109998
2.825 -0.0500007 0.00109998
2.8375 -0.0500007 0.00109998
2.85 -0.0500007 0.00109998
2.8625 -0.0500008 0.00109998
2.875 -0.0500008 0.00109998
2.8875 -0.0500008 0.00109998
2.9 -0.0500008 0.00109998
2.9125 -0.0500008 0.00109998
2.925 -0.0500008 0.00109998
2.9375 -0.0500008 0.00109998
2.95 -0.0500008 0.00109998
2.9625 -0.0500008 0.00109998
2.975 -0.0500008 0.00109998
2.9875 -0.0500008 0.00109998
3 -0.0500008 0.00109998
3.0125 -0.0500008 0.00109999
3.025 -0.0500008 0.00109999
3.0375 -0.0500008 0.00109999
3.05 -0.0500008 0.00109999
3.0625 -0.0500008 0.00109999
3.075 -0.0500008 0.00109999
3.0875 -0.0500008 0.00109999
3.1 -0.0500008 0.00109999
3.1125 -0.0500008 0.00109999
3.125 -0.0500008 0.00109999
3.1375 -0.0500008 0.00109999
3.15 -0.0500008 0.00109999
3.1625 -0.0500008 0.00109999
3.175 -0.0500008 0.00109999
3.1875 -0.0500008 0.00109999
3.2 -0.0500008 0.00109999
3.2125 -0.0500008 0.00109999
3.225 -0.0500008 0.00109999
3.2375 -0.0500008 0.00109999
3.25 -0.0500008 0.00109999
3.2625 -0.0500008 0.00109999
3.275 -0.0500008 0.00109999
3.2875 -0.0500008 0.00109999
3.3 -0.0500008 0.00109999
3.3125 -0.0500008 0.00109999
3.325 -0.0500008 0.00109999
3.3375 -0.0500008 0.00109999
3.35 -0.0500008 0.0011
3.3625 -0.0500008 0.0011
[...]
POINT_DATA 15780
 FIELD attributes 1
U 3 15780 float
30.0002 	-7.01783e-06 	-6.30587e-06 30.0002 	-6.84335e-06 	-6.51454e-06 30.0002 	-6.66886e-06 	-6.72321e-06 30.0002 	-6.49438e-06 	-6.93187e-06 30.0002 	-6.31989e-06 	-7.14054e-06 30.0002 	-6.14541e-06 	-7.34921e-06 30.0004 	-1.23851e-05 	-1.261e-06 30.0004 	-1.23851e-05 	-1.261e-06 30.0004 	-1.23851e-05 	-1.261e-06 30.0004 	-1.23851e-05 	-1.261e-06 30.0002 	-7.05017e-08 	-6.84367e-06 30.0005 	-1.0709e-05 	-1.68705e-06 30.0005 	-1.0709e-05 	-1.68705e-06 30.0005 	-1.0709e-05 	-1.68705e-06 30.0005 	-1.0709e-05 	-1.68705e-06 30.0002 	-7.21902e-08 	-6.59608e-06 30.0005 	-9.95845e-06 	-2.08023e-06 30.0005 	-9.95844e-06 	-2.08023e-06 30.0005 	-9.95843e-06 	-2.08023e-06 30.0005 	-9.95843e-06 	-2.08022e-06 30.0003 	-4.59307e-06 	-6.24726e-06 30.0005 	-9.69169e-06 	-2.34896e-06 30.0005 	-9.69169e-06 	-2.34895e-06 30.0005 	-9.69168e-06 	-2.34895e-06 30.0005 	-9.69167e-06 	-2.34895e-06 30.0003 	-7.58013e-08 	-6.57615e-06 30.0005 	-9.52353e-06 	-2.49783e-06 30.0005 	-9.52352e-06 	-2.49783e-06 30.0005 	-9.52351e-06 	-2.49782e-06 30.0005 	-9.5235e-06 	-2.49782e-06 30.0003 	-7.75681e-08 	-6.52627e-06 30.0005 	-9.38718e-06 	-2.55607e-06 30.0005 	-9.38717e-06 	-2.55607e-06 30.0005 	-9.38716e-06 	-2.55607e-06 30.0005 	-9.38715e-06 	-2.55607e-06 30.0003 	-4.26692e-06 	-6.08529e-06 30.0005 	-9.27976e-06 	-2.5583e-06 30.0005 	-9.27975e-06 	-2.5583e-06 30.0005 	-9.27975e-06 	-2.5583e-06 30.0005 	-9.27974e-06 	-2.5583e-06 30.0003 	-4.19932e-06 	-5.9779e-06 30.0006 	-9.18759e-06 	-2.53044e-06 30.0006 	-9.18758e-06 	-2.53043e-06 30.0006 	-9.18757e-06 	-2.53043e-06 30.0006 	-9.18756e-06 	-2.53043e-06 30.0003 	-8.28908e-08 	-6.20127e-06 30.0006 	-9.09753e-06 	-2.48119e-06 30.0006 	-9.09752e-06 	-2.48119e-06 30.0006 	-9.09751e-06 	-2.48119e-06 30.0006 	-9.09751e-06 	-2.48118e-06 30.0003 	-8.46455e-08 	-6.05424e-06 30.0006 	-9.00508e-06 	-2.41362e-06 30.0006 	-9.00508e-06 	-2.41362e-06 30.0006 	-9.00507e-06 	-2.41361e-06 30.0006 	-9.00506e-06 	-2.41361e-06 30.0003 	-8.64002e-08 	-5.88783e-06 30.0006 	-8.90894e-06 	-2.32973e-06 30.0006 	-8.90893e-06 	-2.32973e-06 30.0006 	-8.90893e-06 	-2.32973e-06 30.0006 	-8.90892e-06 	-2.32973e-06 30.0003 	-3.93793e-06 	-5.36347e-06 30.0006 	-8.8089e-06 	-2.23275e-06 30.0006 	-8.80889e-06 	-2.23275e-06 30.0006 	-8.80889e-06 	-2.23275e-06 30.0006 	-8.80888e-06 	-2.23275e-06 30.0003 	-3.86414e-06 	-5.16476e-06 30.0006 	-8.70463e-06 	-2.12414e-06 30.0006 	-8.70462e-06 	-2.12414e-06 30.0006 	-8.70461e-06 	-2.12414e-06 30.0006 	-8.70461e-06 	-2.12414e-06 30.0003 	-9.16637e-08 	-5.28458e-06 30.0006 	-8.59643e-06 	-2.00508e-06 30.0006 	-8.59642e-06 	-2.00508e-06 30.0006 	-8.59641e-06 	-2.00508e-06 30.0006 	-8.59641e-06 	-2.00508e-06 30.0003 	-3.70452e-06 	-4.7194e-06 30.0007 	-8.48505e-06 	-1.87669e-06 30.0007 	-8.48504e-06 	-1.87669e-06 30.0007 	-8.48504e-06 	-1.87669e-06 30.0007 	-8.48503e-06 	-1.87668e-06 30.0003 	-3.61941e-06 	-4.47432e-06 30.0007 	-8.3717e-06 	-1.73884e-06 30.0007 	-8.37169e-06 	-1.73884e-06 30.0007 	-8.37168e-06 	-1.73884e-06 30.0007 	-8.37168e-06 	-1.73884e-06 30.0004 	-9.68652e-08 	-4.5432e-06 30.0007 	-8.26007e-06 	-1.59804e-06 30.0007 	-8.26007e-06 	-1.59804e-06 30.0007 	-8.26006e-06 	-1.59804e-06 30.0007 	-8.26006e-06 	-1.59803e-06 30.0004 	-9.85828e-08 	-4.27125e-06 30.0007 	-8.14806e-06 	-1.46324e-06 30.0007 	-8.14805e-06 	-1.46323e-06 30.0007 	-8.14805e-06 	-1.46323e-06 30.0007 	-8.14805e-06 	-1.46323e-06 30.0004 	-1.00305e-07 	-3.98928e-06 30.0007 	-8.01998e-06 	-1.32072e-06 30.0007 	-8.01997e-06 	-1.32072e-06 30.0007 	-8.01997e-06 	-1.32072e-06 30.0007 	-8.01997e-06 	-1.32072e-06 30.0004 	-3.25099e-06 	-3.37796e-06 30.0007 	-7.88117e-06 	-1.16801e-06 30.0007 	-7.88117e-06 	-1.16801e-06 30.0007 	-7.88116e-06 	-1.16801e-06 30.0007 	-7.88116e-06 	-1.16801e-06 30.0004 	-1.03715e-07 	-3.40289e-06 30.0007 	-7.74522e-06 	-1.00788e-06 30.0007 	-7.74522e-06 	-1.00788e-06 30.0007 	-7.74522e-06 	-1.00788e-06 30.0007 	-7.74521e-06 	-1.00788e-06 30.0004 	-1.05411e-07 	-3.10328e-06 30.0007 	-7.61108e-06 	-8.41862e-07 30.0007 	-7.61107e-06 	-8.41861e-07 30.0007 	-7.61107e-06 	-8.41861e-07 30.0007 	-7.61107e-06 	-8.41861e-07 30.0004 	-2.93179e-06 	-2.4879e-06 30.0007 	-7.47529e-06 	-6.70207e-07 30.0007 	-7.47529e-06 	-6.70207e-07 30.0007 	-7.47529e-06 	-6.70207e-07 30.0007 	-7.47528e-06 	-6.70206e-07 30.0004 	-2.82531e-06 	-2.18315e-06 30.0007 	-7.34312e-06 	-4.97053e-07 30.0007 	-7.34312e-06 	-4.97053e-07 30.0007 	-7.34312e-06 	-4.97052e-07 30.0007 	-7.34312e-06 	-4.97052e-07 30.0004 	-1.10462e-07 	-2.17112e-06 30.0007 	-7.21531e-06 	-3.17325e-07 30.0007 	-7.21531e-06 	-3.17325e-07 30.0007 	-7.21531e-06 	-3.17325e-07 30.0007 	-7.2153e-06 	-3.17325e-07 30.0004 	-1.12128e-07 	-1.85338e-06 30.0007 	-7.09856e-06 	-1.38222e-07 30.0007 	-7.09856e-06 	-1.38222e-07 30.0007 	-7.09856e-06 	-1.38222e-07 30.0007 	-7.09856e-06 	-1.38222e-07 30.0004 	-1.1378e-07 	-1.54904e-06 30.0007 	-6.98522e-06 	4.0847e-08 30.0007 	-6.98522e-06 	4.0847e-08 30.0007 	-6.98522e-06 	4.0847e-08 30.0007 	-6.98522e-06 	4.0847e-08 30.0004 	-2.43881e-06 	-9.58529e-07 30.0007 	-6.87161e-06 	2.1466e-07 30.0007 	-6.87161e-06 	2.1466e-07 30.0007 	-6.87161e-06 	2.1466e-07 30.0007 	-6.87161e-06 	2.1466e-07 30.0004 	-2.34719e-06 	-6.82328e-07 30.0007 	-6.7534e-06 	3.90709e-07 30.0007 	-6.7534e-06 	3.90709e-07 30.0007 	-6.7534e-06 	3.90709e-07 30.0007 	-6.75341e-06 	3.90709e-07 30.0004 	-1.18703e-07 	-7.09791e-07 30.0007 	-6.64286e-06 	5.64362e-07 30.0007 	-6.64287e-06 	5.64362e-07 30.0007 	-6.64287e-06 	5.64362e-07 30.0007 	-6.64287e-06 	5.64363e-07 30.0004 	-2.16682e-06 	-1.45473e-07 30.0007 	-6.53587e-06 	7.27391e-07 30.0007 	-6.53588e-06 	7.27391e-07 30.0007 	-6.53588e-06 	7.27391e-07 30.0007 	-6.53588e-06 	7.27391e-07 30.0004 	-2.08114e-06 	1.13803e-07 30.0007 	-6.43055e-06 	8.78829e-07 30.0007 	-6.43055e-06 	8.78829e-07 30.0007 	-6.43056e-06 	8.78829e-07 30.0007 	-6.43056e-06 	8.7883e-07 30.0004 	-1.23584e-07 	7.055e-08 30.0007 	-6.32292e-06 	1.01778e-06 30.0007 	-6.32293e-06 	1.01778e-06 30.0007 	-6.32293e-06 	1.01778e-06 30.0007 	-6.32293e-06 	1.01778e-06 30.0004 	-1.25162e-07 	3.15777e-07 30.0007 	-6.21656e-06 	1.14061e-06 30.0007 	-6.21656e-06 	1.14061e-06 30.0007 	-6.21656e-06 	1.14061e-06 30.0007 	-6.21656e-06 	1.14061e-06 30.0004 	-1.26749e-07 	5.45495e-07 30.0007 	-6.1153e-06 	1.25631e-06 30.0007 	-6.1153e-06 	1.25631e-06 30.0007 	-6.1153e-06 	1.25631e-06 30.0007 	-6.11531e-06 	1.25631e-06 30.0004 	-1.76432e-06 	1.03204e-06 30.0007 	-6.02257e-06 	1.37126e-06 30.0007 	-6.02257e-06 	1.37126e-06 30.0007 	-6.02258e-06 	1.37126e-06 30.0007 	-6.02258e-06 	1.37126e-06 30.0004 	-1.29857e-07 	9.36911e-07 30.0007 	-5.9429e-06 	1.48849e-06 30.0007 	-5.94291e-06 	1.48849e-06 30.0007 	-5.94291e-06 	1.48849e-06 30.0007 	-5.94291e-06 	1.48849e-06 30.0004 	-1.31358e-07 	1.10453e-06 30.0007 	-5.8717e-06 	1.59288e-06 30.0007 	-5.8717e-06 	1.59288e-06 30.0007 	-5.8717e-06 	1.59288e-06 30.0007 	-5.87171e-06 	1.59288e-06 30.0004 	-1.59145e-06 	1.53873e-06 30.0007 	-5.80209e-06 	1.67931e-06 30.0007 	-5.8021e-06 	1.67931e-06 30.0007 	-5.8021e-06 	1.67931e-06 30.0007 	-5.8021e-06 	1.67931e-06 30.0003 	-1.54424e-06 	1.67818e-06 30.0007 	-5.73401e-06 	1.75009e-06 30.0007 	-5.73401e-06 	1.7501e-06 30.0007 	-5.73401e-06 	1.7501e-06 30.0007 	-5.73402e-06 	1.7501e-06 30.0003 	-1.36075e-07 	1.52469e-06 30.0006 	-5.66887e-06 	1.8098e-06 30.0006 	-5.66888e-06 	1.8098e-06 30.0006 	-5.66888e-06 	1.8098e-06 30.0006 	-5.66888e-06 	1.8098e-06 30.0003 	-1.37635e-07 	1.63224e-06 30.0006 	-5.60881e-06 	1.85993e-06 30.0006 	-5.60881e-06 	1.85993e-06 30.0006 	-5.60882e-06 	1.85993e-06 30.0006 	-5.60882e-06 	1.85993e-06 30.0003 	-1.39111e-07 	1.72396e-06 30.0006 	-5.55452e-06 	1.90042e-06 30.0006 	-5.55453e-06 	1.90043e-06 30.0006 	-5.55453e-06 	1.90043e-06 30.0006 	-5.55453e-06 	1.90043e-06 30.0003 	-1.38894e-06 	2.071e-06 30.0006 	-5.50569e-06 	1.93108e-06 30.0006 	-5.5057e-06 	1.93109e-06 30.0006 	-5.5057e-06 	1.93109e-06 30.0006 	-5.50571e-06 	1.93109e-06 30.0003 	-1.36191e-06 	2.13093e-06 30.0006 	-5.46195e-06 	1.95182e-06 30.0006 	-5.46195e-06 	1.95182e-06 30.0006 	-5.46195e-06 	1.95183e-06 30.0006 	-5.46196e-06 	1.95183e-06 30.0003 	-1.43161e-07 	1.90823e-06 30.0006 	-5.42316e-06 	1.96277e-06 30.0006 	-5.42317e-06 	1.96277e-06 30.0006 	-5.42317e-06 	1.96277e-06 30.0006 	-5.42317e-06 	1.96277e-06 30.0003 	-1.32353e-06 	2.20763e-06 30.0006 	-5.38921e-06 	1.96431e-06 30.0006 	-5.38921e-06 	1.96431e-06 30.0006 	-5.38922e-06 	1.96431e-06 30.0006 	-5.38922e-06 	1.96431e-06 30.0003 	-1.31176e-06 	2.22551e-06 30.0006 	-5.36004e-06 	1.95691e-06 30.0006 	-5.36004e-06 	1.95691e-06 30.0006 	-5.36004e-06 	1.95691e-06 30.0006 	-5.36005e-06 	1.95691e-06 30.0003 	-1.4705e-07 	1.96614e-06 30.0005 	-5.33553e-06 	1.94111e-06 30.0005 	-5.33553e-06 	1.94111e-06 30.0005 	-5.33554e-06 	1.94111e-06 30.0005 	-5.33554e-06 	1.94111e-06 30.0003 	-1.48302e-07 	1.96054e-06 30.0005 	-5.31555e-06 	1.91792e-06 30.0005 	-5.31555e-06 	1.91792e-06 30.0005 	-5.31555e-06 	1.91792e-06 30.0005 	-5.31556e-06 	1.91793e-06 30.0003 	-1.49523e-07 	1.94421e-06 30.0005 	-5.29997e-06 	1.888e-06 30.0005 	-5.29997e-06 	1.888e-06 30.0005 	-5.29998e-06 	1.888e-06 30.0005 	-5.29998e-06 	1.888e-06 30.0003 	-1.30921e-06 	2.17898e-06 30.0005 	-5.28864e-06 	1.8519e-06 30.0005 	-5.28864e-06 	1.8519e-06 30.0005 	-5.28864e-06 	1.8519e-06 30.0005 	-5.28865e-06 	1.8519e-06 30.0003 	-1.51885e-07 	1.88227e-06 30.0005 	-5.28136e-06 	1.81007e-06 30.0005 	-5.28137e-06 	1.81008e-06 30.0005 	-5.28137e-06 	1.81008e-06 30.0005 	-5.28137e-06 	1.81008e-06 30.0003 	-1.53008e-07 	1.83815e-06 30.0005 	-5.27793e-06 	1.76316e-06 30.0005 	-5.27794e-06 	1.76316e-06 30.0005 	-5.27794e-06 	1.76316e-06 30.0005 	-5.27794e-06 	1.76316e-06 30.0003 	-1.34845e-06 	2.04406e-06 30.0005 	-5.27812e-06 	1.71162e-06 30.0005 	-5.27812e-06 	1.71162e-06 30.0005 	-5.27812e-06 	1.71162e-06 30.0005 	-5.27813e-06 	1.71163e-06 30.0003 	-1.36852e-06 	1.98422e-06 30.0005 	-5.28168e-06 	1.65599e-06 30.0005 	-5.28169e-06 	1.65599e-06 30.0005 	-5.28169e-06 	1.656e-06 30.0005 	-5.28169e-06 	1.656e-06 30.0002 	-1.56239e-07 	1.66279e-06 30.0005 	-5.28849e-06 	1.59668e-06 30.0005 	-5.2885e-06 	1.59668e-06 30.0005 	-5.2885e-06 	1.59669e-06 30.0005 	-5.2885e-06 	1.59669e-06 30.0002 	-1.573e-07 	1.59254e-06 30.0004 	-5.29846e-06 	1.53416e-06 30.0004 	-5.29847e-06 	1.53416e-06 30.0004 	-5.29847e-06 	1.53416e-06 30.0004 	-5.29847e-06 	1.53416e-06 30.0002 	-1.58383e-07 	1.51768e-06 30.0004 	-5.31142e-06 	1.4689e-06 30.0004 	-5.31143e-06 	1.46891e-06 30.0004 	-5.31143e-06 	1.46891e-06 30.0004 	-5.31143e-06 	1.46891e-06 30.0002 	-1.48019e-06 	1.69061e-06 30.0004 	-5.32698e-06 	1.40145e-06 30.0004 	-5.32699e-06 	1.40145e-06 30.0004 	-5.32699e-06 	1.40146e-06 30.0004 	-5.32699e-06 	1.40146e-06 30.0002 	-1.51472e-06 	1.60712e-06 30.0004 	-5.34487e-06 	1.33221e-06 30.0004 	-5.34487e-06 	1.33221e-06 30.0004 	-5.34487e-06 	1.33221e-06 30.0004 	-5.34487e-06 	1.33221e-06 30.0002 	-1.61644e-07 	1.27186e-06 30.0004 	-5.36489e-06 	1.2615e-06 30.0004 	-5.36489e-06 	1.2615e-06 30.0004 	-5.36489e-06 	1.2615e-06 30.0004 	-5.36489e-06 	1.2615e-06 30.0002 	-1.59004e-06 	1.43249e-06 30.0004 	-5.38671e-06 	1.18983e-06 30.0004 	-5.38672e-06 	1.18983e-06 30.0004 	-5.38672e-06 	1.18983e-06 30.0004 	-5.38672e-06 	1.18983e-06 30.0002 	-1.63053e-06 	1.34241e-06 30.0004 	-5.41034e-06 	1.1175e-06 30.0004 	-5.41034e-06 	1.11751e-06 30.0004 	-5.41034e-06 	1.11751e-06 30.0004 	-5.41035e-06 	1.11751e-06 30.0002 	-1.64654e-07 	1.00609e-06 30.0004 	-5.43542e-06 	1.04483e-06 30.0004 	-5.43542e-06 	1.04483e-06 30.0004 	-5.43542e-06 	1.04483e-06 30.0004 	-5.43542e-06 	1.04483e-06 30.0002 	-1.65587e-07 	9.15617e-07 30.0004 	-5.46109e-06 	9.72295e-07 30.0004 	-5.4611e-06 	9.72296e-07 30.0004 	-5.4611e-06 	9.72296e-07 30.0004 	-5.4611e-06 	9.72296e-07 30.0002 	-1.66493e-07 	8.24998e-07 30.0004 	-5.48716e-06 	8.99521e-07 30.0004 	-5.48716e-06 	8.99521e-07 30.0004 	-5.48716e-06 	8.99522e-07 30.0004 	-5.48716e-06 	8.99522e-07 30.0002 	-1.80741e-06 	9.75424e-07 30.0004 	-5.51396e-06 	8.25987e-07 30.0004 	-5.51396e-06 	8.25987e-07 30.0004 	-5.51396e-06 	8.25987e-07 30.0004 	-5.51396e-06 	8.25987e-07 30.0002 	-1.68205e-07 	6.43632e-07 30.0003 	-5.5437e-06 	7.52027e-07 30.0003 	-5.5437e-06 	7.52027e-07 30.0003 	-5.5437e-06 	7.52028e-07 30.0003 	-5.54371e-06 	7.52028e-07 30.0002 	-1.69022e-07 	5.5264e-07 30.0003 	-5.57819e-06 	6.77484e-07 30.0003 	-5.57819e-06 	6.77484e-07 30.0003 	-5.5782e-06 	6.77484e-07 30.0003 	-5.5782e-06 	6.77484e-07 30.0002 	-1.95579e-06 	7.0132e-07 30.0003 	-5.61506e-06 	6.04423e-07 30.0003 	-5.61506e-06 	6.04423e-07 30.0003 	-5.61506e-06 	6.04423e-07 30.0003 	-5.61506e-06 	6.04423e-07 30.0002 	-2.00797e-06 	6.1169e-07 30.0003 	-5.65112e-06 	5.34704e-07 30.0003 	-5.65112e-06 	5.34704e-07 30.0003 	-5.65112e-06 	5.34705e-07 30.0003 	-5.65112e-06 	5.34705e-07 30.0002 	-1.71507e-07 	2.80949e-07 30.0003 	-5.68223e-06 	4.67682e-07 30.0003 	-5.68223e-06 	4.67682e-07 30.0003 	-5.68223e-06 	4.67682e-07 30.0003 	-5.68223e-06 	4.67682e-07 30.0002 	-1.72335e-07 	1.97336e-07 30.0003 	-5.71067e-06 	4.03237e-07 30.0003 	-5.71067e-06 	4.03237e-07 30.0003 	-5.71067e-06 	4.03237e-07 30.0003 	-5.71067e-06 	4.03237e-07 30.0002 	-1.73135e-07 	1.16407e-07 30.0003 	-5.73884e-06 	3.39278e-07 30.0003 	-5.73884e-06 	3.39278e-07 30.0003 	-5.73884e-06 	3.39278e-07 30.0003 	-5.73884e-06 	3.39278e-07 30.0002 	-2.20122e-06 	2.74094e-07 30.0003 	-5.76682e-06 	2.75311e-07 30.0003 	-5.76682e-06 	2.75311e-07 30.0003 	-5.76682e-06 	2.75311e-07 30.0003 	-5.76682e-06 	2.75311e-07 30.0002 	-2.24814e-06 	1.96351e-07 30.0003 	-5.79351e-06 	2.10823e-07 30.0003 	-5.79351e-06 	2.10823e-07 30.0003 	-5.79351e-06 	2.10823e-07 30.0003 	-5.79351e-06 	2.10823e-07 30.0002 	-1.75278e-07 	-1.0914e-07 30.0003 	-5.8215e-06 	1.48813e-07 30.0003 	-5.8215e-06 	1.48813e-07 30.0003 	-5.8215e-06 	1.48813e-07 30.0003 	-5.8215e-06 	1.48813e-07 30.0002 	-2.34189e-06 	4.46679e-08 30.0003 	-5.85076e-06 	9.00205e-08 30.0003 	-5.85076e-06 	9.00205e-08 30.0003 	-5.85076e-06 	9.00206e-08 30.0003 	-5.85076e-06 	9.00206e-08 30.0002 	-2.38919e-06 	-2.91075e-08 30.0003 	-5.88117e-06 	3.48499e-08 30.0003 	-5.88117e-06 	3.48499e-08 30.0003 	-5.88117e-06 	3.48499e-08 30.0003 	-5.88117e-06 	3.48499e-08 30.0002 	-1.77252e-07 	-3.30767e-07 30.0003 	-5.91285e-06 	-1.70386e-08 30.0003 	-5.91285e-06 	-1.70386e-08 30.0003 	-5.91285e-06 	-1.70386e-08 30.0003 	-5.91285e-06 	-1.70386e-08 30.0002 	-1.7786e-07 	-4.01802e-07 30.0003 	-5.94598e-06 	-6.90191e-08 30.0003 	-5.94598e-06 	-6.90191e-08 30.0003 	-5.94598e-06 	-6.90191e-08 30.0003 	-5.94598e-06 	-6.90191e-08 30.0002 	-1.78464e-07 	-4.67072e-07 30.0003 	-5.97794e-06 	-1.23278e-07 30.0003 	-5.97794e-06 	-1.23278e-07 30.0003 	-5.97794e-06 	-1.23278e-07 30.0003 	-5.97794e-06 	-1.23278e-07 30.0002 	-2.58069e-06 	-3.01382e-07 30.0003 	-6.00571e-06 	-1.77924e-07 30.0003 	-6.00571e-06 	-1.77924e-07 30.0003 	-6.00571e-06 	-1.77924e-07 30.0003 	-6.00571e-06 	-1.77924e-07 30.0002 	-1.79644e-07 	-5.84885e-07 30.0003 	-6.02983e-06 	-2.29183e-07 30.0003 	-6.02983e-06 	-2.29183e-07 30.0003 	-6.02983e-06 	-2.29183e-07 30.0003 	-6.02983e-06 	-2.29183e-07 30.0002 	-1.8023e-07 	-6.42148e-07 30.0003 	-6.05308e-06 	-2.76146e-07 30.0003 	-6.05307e-06 	-2.76146e-07 30.0003 	-6.05307e-06 	-2.76146e-07 30.0003 	-6.05307e-06 	-2.76146e-07 30.0002 	-2.70876e-06 	-4.78983e-07 30.0003 	-6.07694e-06 	-3.19622e-07 30.0003 	-6.07694e-06 	-3.19622e-07 30.0003 	-6.07694e-06 	-3.19622e-07 30.0003 	-6.07693e-06 	-3.19622e-07 30.0002 	-2.74978e-06 	-5.34028e-07 30.0003 	-6.10114e-06 	-3.6116e-07 30.0003 	-6.10114e-06 	-3.6116e-07 30.0003 	-6.10114e-06 	-3.6116e-07 30.0003 	-6.10114e-06 	-3.61159e-07 30.0002 	-1.81966e-07 	-8.03787e-07 30.0003 	-6.12518e-06 	-4.01356e-07 30.0003 	-6.12518e-06 	-4.01356e-07 30.0003 	-6.12518e-06 	-4.01356e-07 30.0003 	-6.12518e-06 	-4.01356e-07 30.0001 	-1.82516e-07 	-8.53107e-07 30.0003 	-6.14859e-06 	-4.4035e-07 30.0003 	-6.14859e-06 	-4.4035e-07 30.0003 	-6.14859e-06 	-4.4035e-07 30.0003 	-6.14859e-06 	-4.4035e-07 30.0001 	-1.83056e-07 	-9.00316e-07 30.0003 	-6.17125e-06 	-4.77966e-07 30.0003 	-6.17125e-06 	-4.77966e-07 30.0003 	-6.17125e-06 	-4.77966e-07 30.0003 	-6.17125e-06 	-4.77966e-07 30.0001 	-2.90927e-06 	-7.31458e-07 30.0003 	-6.19305e-06 	-5.14182e-07 30.0003 	-6.19305e-06 	-5.14182e-07 30.0003 	-6.19305e-06 	-5.14182e-07 30.0003 	-6.19305e-06 	-5.14182e-07 30.0001 	-2.94715e-06 	-7.75585e-07 30.0003 	-6.21393e-06 	-5.48809e-07 30.0003 	-6.21393e-06 	-5.48808e-07 30.0003 	-6.21393e-06 	-5.48808e-07 30.0003 	-6.21393e-06 	-5.48808e-07 30.0001 	-1.84563e-07 	-1.02953e-06 30.0003 	-6.23401e-06 	-5.82025e-07 30.0003 	-6.23401e-06 	-5.82025e-07 30.0003 	-6.23401e-06 	-5.82025e-07 30.0003 	-6.23401e-06 	-5.82025e-07 30.0001 	-3.02013e-06 	-8.57471e-07 30.0003 	-6.25329e-06 	-6.13864e-07 30.0003 	-6.25329e-06 	-6.13864e-07 30.0003 	-6.25329e-06 	-6.13864e-07 30.0003 	-6.25329e-06 	-6.13864e-07 30.0001 	-3.05522e-06 	-8.95479e-07 30.0003 	-6.27178e-06 	-6.44389e-07 30.0003 	-6.27178e-06 	-6.44389e-07 30.0003 	-6.27178e-06 	-6.44389e-07 30.0003 	-6.27177e-06 	-6.44389e-07 30.0001 	-1.85977e-07 	-1.14084e-06 30.0003 	-6.28946e-06 	-6.73589e-07 30.0003 	-6.28946e-06 	-6.73589e-07 30.0003 	-6.28946e-06 	-6.73589e-07 30.0003 	-6.28946e-06 	-6.73589e-07 30.0001 	-1.86417e-07 	-1.1746e-06 30.0003 	-6.30649e-06 	-7.01407e-07 30.0003 	-6.30648e-06 	-7.01407e-07 30.0003 	-6.30648e-06 	-7.01406e-07 30.0003 	-6.30648e-06 	-7.01406e-07 30.0001 	-1.86863e-07 	-1.20668e-06 30.0003 	-6.32256e-06 	-7.27833e-07 30.0003 	-6.32256e-06 	-7.27833e-07 30.0003 	-6.32256e-06 	-7.27833e-07 30.0003 	-6.32256e-06 	-7.27833e-07 30.0001 	-3.18665e-06 	-1.031e-06 30.0003 	-6.33782e-06 	-7.52946e-07 30.0003 	-6.33782e-06 	-7.52946e-07 30.0003 	-6.33782e-06 	-7.52946e-07 30.0003 	-6.33782e-06 	-7.52946e-07 30.0001 	-1.8772e-07 	-1.26597e-06 30.0003 	-6.35233e-06 	-7.76916e-07 30.0003 	-6.35233e-06 	-7.76915e-07 30.0003 	-6.35233e-06 	-7.76915e-07 30.0003 	-6.35232e-06 	-7.76915e-07 30.0001 	-1.88128e-07 	-1.29332e-06 30.0003 	-6.36615e-06 	-7.99786e-07 30.0003 	-6.36614e-06 	-7.99786e-07 30.0003 	-6.36614e-06 	-7.99785e-07 30.0003 	-6.36614e-06 	-7.99785e-07 30.0001 	-3.27605e-06 	-1.11605e-06 30.0003 	-6.37923e-06 	-8.21511e-07 30.0003 	-6.37923e-06 	-8.21511e-07 30.0003 	-6.37923e-06 	-8.21511e-07 30.0003 	-6.37923e-06 	-8.21511e-07 30.0001 	-3.30416e-06 	-1.14152e-06 30.0003 	-6.39151e-06 	-8.4195e-07 30.0003 	-6.39151e-06 	-8.4195e-07 30.0003 	-6.39151e-06 	-8.4195e-07 30.0003 	-6.39151e-06 	-8.41949e-07 30.0001 	-1.89322e-07 	-1.36687e-06 30.0003 	-6.40314e-06 	-8.61341e-07 30.0003 	-6.40314e-06 	-8.61341e-07 30.0003 	-6.40313e-06 	-8.61341e-07 30.0003 	-6.40313e-06 	-8.6134e-07 30.0001 	-1.89705e-07 	-1.38874e-06 30.0003 	-6.41409e-06 	-8.7978e-07 30.0003 	-6.41409e-06 	-8.79779e-07 30.0003 	-6.41408e-06 	-8.79779e-07 30.0003 	-6.41408e-06 	-8.79779e-07 30.0001 	-1.90085e-07 	-1.40939e-06 30.0003 	-6.42433e-06 	-8.9726e-07 30.0003 	-6.42433e-06 	-8.9726e-07 30.0003 	-6.42433e-06 	-8.9726e-07 30.0003 	-6.42433e-06 	-8.97259e-07 30.0001 	-3.40846e-06 	-1.23052e-06 30.0003 	-6.43391e-06 	-9.13846e-07 30.0003 	-6.43391e-06 	-9.13846e-07 30.0003 	-6.43391e-06 	-9.13846e-07 30.0003 	-6.4339e-06 	-9.13845e-07 30.0001 	-3.43259e-06 	-1.24985e-06 30.0003 	-6.44277e-06 	-9.29535e-07 30.0003 	-6.44277e-06 	-9.29535e-07 30.0003 	-6.44277e-06 	-9.29534e-07 30.0003 	-6.44276e-06 	-9.29534e-07 30.0001 	-1.91151e-07 	-1.46456e-06 30.0003 	-6.45103e-06 	-9.4439e-07 30.0003 	-6.45102e-06 	-9.44389e-07 30.0003 	-6.45102e-06 	-9.44389e-07 30.0003 	-6.45102e-06 	-9.44389e-07 30.0001 	-3.47864e-06 	-1.28534e-06 30.0003 	-6.4587e-06 	-9.58391e-07 30.0003 	-6.4587e-06 	-9.58391e-07 30.0003 	-6.4587e-06 	-9.5839e-07 30.0003 	-6.4587e-06 	-9.5839e-07 30.0001 	-3.50069e-06 	-1.3016e-06 30.0003 	-6.46578e-06 	-9.71685e-07 30.0003 	-6.46578e-06 	-9.71685e-07 30.0003 	-6.46578e-06 	-9.71685e-07 30.0003 	-6.46577e-06 	-9.71684e-07 30.0