# vtk DataFile Version 2.0
track0
ASCII
DATASET POLYDATA
POINTS 19582 float
-1.001 -0.05 0.0011
-1.00079 -0.05 0.0011
-1.00058 -0.0500001 0.0011
-1.00038 -0.0500001 0.0011
-1.00017 -0.0500002 0.00110001
-0.999962 -0.0500002 0.00110001
-0.98746 -0.0500027 0.00110016
-0.974958 -0.0500074 0.00109998
-0.962456 -0.0500121 0.00109981
-0.949954 -0.0500168 0.00109963
-0.937452 -0.0500214 0.00109946
-0.924948 -0.0500217 0.00109968
-0.912445 -0.0500269 0.00109975
-0.899941 -0.050032 0.00109983
-0.887437 -0.0500372 0.0010999
-0.874933 -0.0500424 0.00109998
-0.862428 -0.0500427 0.00110029
-0.849922 -0.0500486 0.00110053
-0.837416 -0.0500545 0.00110077
-0.82491 -0.0500603 0.00110101
-0.812404 -0.0500662 0.00110125
-0.799896 -0.0500703 0.00110155
-0.787388 -0.0500771 0.00110185
-0.774879 -0.0500839 0.00110215
-0.762371 -0.0500907 0.00110244
-0.749862 -0.0500975 0.00110274
-0.737351 -0.0501026 0.00110301
-0.724839 -0.0501109 0.00110329
-0.712327 -0.0501191 0.00110357
-0.699816 -0.0501274 0.00110386
-0.687304 -0.0501356 0.00110414
-0.674789 -0.0501365 0.00110434
-0.662273 -0.0501468 0.00110453
-0.649757 -0.0501571 0.00110472
-0.637242 -0.0501674 0.00110491
-0.624726 -0.0501777 0.0011051
-0.612206 -0.0501863 0.00110501
-0.599685 -0.0501997 0.00110498
-0.587165 -0.0502132 0.00110496
-0.574644 -0.0502266 0.00110494
-0.562124 -0.05024 0.00110491
-0.549598 -0.0502517 0.00110435
-0.537072 -0.0502704 0.00110377
-0.524546 -0.0502892 0.0011032
-0.51202 -0.0503079 0.00110263
-0.499494 -0.0503266 0.00110205
-0.486962 -0.0503438 0.00110054
-0.47443 -0.0503737 0.00109875
-0.461898 -0.0504036 0.00109697
-0.449366 -0.0504333 0.0010952
-0.436834 -0.0504631 0.00109342
-0.424293 -0.0504679 0.00108876
-0.411752 -0.0505227 0.00108209
-0.39921 -0.0505772 0.00107546
-0.386669 -0.0506313 0.00106887
-0.374128 -0.0506851 0.00106233
-0.367853 -0.0507067 0.00105713
-0.361577 -0.0507607 0.00105288
-0.355302 -0.0508145 0.00104865
-0.349027 -0.0508681 0.00104443
-0.342751 -0.0509215 0.00104023
-0.336478 -0.0509578 0.00103489
-0.330205 -0.0510294 0.00103041
-0.323932 -0.0511007 0.00102595
-0.317659 -0.0511716 0.00102151
-0.311385 -0.0512423 0.00101709
-0.305109 -0.0512917 0.00101079
-0.298833 -0.0513895 0.0010052
-0.292557 -0.0514866 0.000999636
-0.286282 -0.0515832 0.000994108
-0.280004 -0.0516793 0.00098861
-0.273728 -0.0517445 0.000981028
-0.267453 -0.0518851 0.000973585
-0.261178 -0.0520246 0.0009662
-0.254903 -0.0521631 0.000958873
-0.248624 -0.0523006 0.000951598
-0.242358 -0.0523905 0.000942239
-0.236096 -0.0526144 0.000931354
-0.229833 -0.0528356 0.000920598
-0.22357 -0.0530542 0.000909972
-0.217295 -0.0532706 0.000899452
-0.211049 -0.0534074 0.000887619
-0.204812 -0.0537757 0.000873173
-0.198575 -0.0541379 0.000858971
-0.192337 -0.0544939 0.000845007
-0.186067 -0.0548459 0.000831206
-0.182944 -0.0549547 0.000825307
-0.179828 -0.0551857 0.000820439
-0.176711 -0.0554153 0.0008156
-0.173595 -0.0556435 0.00081079
-0.170452 -0.0558722 0.000805969
-0.167328 -0.0559892 0.000797819
-0.164212 -0.0562372 0.000794905
-0.161095 -0.0564841 0.000792002
-0.157979 -0.0567302 0.00078911
-0.154833 -0.0569777 0.000786202
-0.151686 -0.0571046 0.000784066
-0.14855 -0.0573827 0.000782707
-0.145413 -0.0576604 0.000781351
-0.142276 -0.0579375 0.000779997
-0.139103 -0.0582173 0.00077863
-0.135928 -0.0583567 0.000778517
-0.132765 -0.0586738 0.000779409
-0.129602 -0.0589856 0.000780351
-0.126437 -0.059277 0.000781472
-0.123236 -0.059552 0.000782775
-0.120024 -0.0597101 0.000785086
-0.116818 -0.0599847 0.000788934
-0.113611 -0.0602365 0.000793096
-0.110403 -0.0604669 0.000797557
-0.107185 -0.0606781 0.000802312
-0.106944 -0.060692 0.000802673
-0.106704 -0.0607065 0.000803064
-0.106464 -0.060721 0.000803475
-0.106224 -0.0607355 0.000803906
-0.106005 -0.0607487 0.000804316
-0.10299 -0.0609319 0.000810202
-0.0999763 -0.0611466 0.0008179
-0.0969637 -0.0613743 0.000825266
-0.0939522 -0.0616151 0.000832282
-0.0909377 -0.0618698 0.000838939
-0.0876934 -0.0620978 0.000847929
-0.084457 -0.0624193 0.000855176
-0.0812228 -0.0627621 0.000861872
-0.0779906 -0.0631225 0.000867662
-0.0747525 -0.0634741 0.000873327
-0.0715968 -0.0636286 0.000882735
-0.0684543 -0.0639546 0.00088672
-0.065316 -0.0643192 0.000889505
-0.0621778 -0.064685 0.000892297
-0.0590485 -0.065006 0.000896511
-0.0560736 -0.0651485 0.000905748
-0.0531074 -0.0654189 0.000908135
-0.0501457 -0.0657334 0.000908136
-0.0471839 -0.0660478 0.000908137
-0.044218 -0.066346 0.000914262
-0.0412762 -0.0665991 0.000936696
-0.0383352 -0.0668611 0.000942494
-0.0353944 -0.0671258 0.000940855
-0.0324535 -0.0673902 0.000939218
-0.0295104 -0.0676399 0.000946974
-0.0265347 -0.0678623 0.000975596
-0.0235582 -0.068076 0.000981935
-0.0205812 -0.068283 0.000976248
-0.0176042 -0.068489 0.000970591
-0.0146297 -0.0686519 0.000969379
-0.0116182 -0.0687354 0.00097673
-0.00860753 -0.0688449 0.00097264
-0.00559738 -0.0689674 0.00096254
-0.00258719 -0.0690887 0.000952535
0.000426593 -0.0692007 0.000955484
0.0034617 -0.0692942 0.000981521
0.00649782 -0.0693511 0.000983807
0.00953427 -0.0693839 0.000971136
0.0125707 -0.0694163 0.000958613
0.0156024 -0.0694438 0.000959368
0.0186449 -0.0694627 0.000982273
0.0216873 -0.0694274 0.000983706
0.0247292 -0.0693607 0.000971134
0.0277711 -0.0692946 0.000958707
0.0308132 -0.0692325 0.000957964
0.0338427 -0.06918 0.000976868
0.0368705 -0.0690639 0.000977211
0.0398969 -0.0689146 0.000965791
0.0429233 -0.0687669 0.000954492
0.0459556 -0.0686529 0.000944821
0.0489734 -0.0686051 0.000938345
0.0519866 -0.0684306 0.000930255
0.0549958 -0.068198 0.000921457
0.0580052 -0.0679675 0.000912736
0.0610241 -0.0677845 0.000903655
0.0640577 -0.0677115 0.000893652
0.0670835 -0.0674824 0.000884601
0.0701043 -0.0671949 0.000875967
0.0731254 -0.06691 0.00086741
0.0761554 -0.0666457 0.000860602
0.0792607 -0.0664308 0.000858534
0.0823574 -0.0661147 0.00085105
0.0854509 -0.0657692 0.000841926
0.0885448 -0.0654272 0.000832891
0.0916621 -0.0651062 0.000824009
0.0948226 -0.0648597 0.000815577
0.0979753 -0.0645296 0.000802724
0.101127 -0.0641901 0.000789306
0.104279 -0.0638559 0.000776099
0.107454 -0.063539 0.000762923
0.110646 -0.0634371 0.000748653
0.113826 -0.0631531 0.000733248
0.117008 -0.0628781 0.000718207
0.12019 -0.0626224 0.00070371
0.123402 -0.0623832 0.000689621
0.126587 -0.0622329 0.000677418
0.129771 -0.0620434 0.000664799
0.132955 -0.0618677 0.000652602
0.136141 -0.0617052 0.00064081
0.13933 -0.0615551 0.000629397
0.140958 -0.0614941 0.000623941
0.142586 -0.0614303 0.000618712
0.144213 -0.0613701 0.00061366
0.145841 -0.0613122 0.000608683
0.147594 -0.0612522 0.000603404
0.149109 -0.0612025 0.000598913
0.150623 -0.0611505 0.000594533
0.152138 -0.0610961 0.000590265
0.153652 -0.0610393 0.000586112
0.155168 -0.0609798 0.000582072
0.158315 -0.0608802 0.000573068
0.161462 -0.0607528 0.000566211
0.164608 -0.0606155 0.000559768
0.167753 -0.0604676 0.000553755
0.170905 -0.0603079 0.000548173
0.174044 -0.0602211 0.000540616
0.177179 -0.0600567 0.000536269
0.180313 -0.0598807 0.000532277
0.183447 -0.0596923 0.000528653
0.186597 -0.0595023 0.000525084
0.189732 -0.0594109 0.000524762
0.192862 -0.0592402 0.000521684
0.195993 -0.0590704 0.000518623
0.199124 -0.0589016 0.000515581
0.202269 -0.0587331 0.000512543
0.205402 -0.0586522 0.000512287
0.208532 -0.0585022 0.000508845
0.211663 -0.0583532 0.000505427
0.214793 -0.0582052 0.000502031
0.217933 -0.0580578 0.000498648
0.224191 -0.0579421 0.000489459
0.230446 -0.0577169 0.000488548
0.236701 -0.0574922 0.000487639
0.242956 -0.057268 0.000486732
0.249221 -0.0570437 0.000485825
0.255492 -0.0569425 0.0004953
0.261763 -0.0568032 0.000493277
0.268033 -0.0566645 0.000491261
0.274303 -0.0565264 0.000489254
0.280576 -0.0563888 0.000487254
0.286864 -0.0563453 0.000483323
0.293152 -0.0562544 0.000480623
0.29944 -0.0561639 0.000477937
0.305728 -0.056074 0.000475267
0.312017 -0.0559845 0.000472611
0.318314 -0.055948 0.0004771
0.324612 -0.0558794 0.000474068
0.330909 -0.0558111 0.000471055
0.337206 -0.0557434 0.000468061
0.343504 -0.055676 0.000465086
0.349803 -0.0556505 0.000461421
0.356102 -0.0555952 0.000458251
0.362401 -0.0555403 0.000455103
0.3687 -0.0554858 0.000451976
0.374999 -0.0554316 0.00044887
0.381289 -0.0554103 0.000445333
0.387579 -0.0553634 0.000442301
0.393869 -0.0553168 0.000439289
0.400159 -0.0552705 0.000436298
0.406449 -0.0552246 0.000433327
0.412727 -0.055206 0.000430068
0.419005 -0.055165 0.000427278
0.425282 -0.0551241 0.000424505
0.43156 -0.0550836 0.00042175
0.437837 -0.0550433 0.000419014
0.4441 -0.0550267 0.000416128
0.450362 -0.0549901 0.000413632
0.456625 -0.0549538 0.00041115
0.462887 -0.0549176 0.000408684
0.46915 -0.0548817 0.000406232
0.475399 -0.0548666 0.000403801
0.481649 -0.0548337 0.000401697
0.487899 -0.054801 0.000399603
0.494148 -0.0547684 0.000397521
0.500398 -0.054736 0.000395449
0.506641 -0.0547198 0.00039698
0.512884 -0.0546896 0.000395257
0.519128 -0.0546596 0.000393541
0.525371 -0.0546296 0.000391833
0.531614 -0.0545999 0.000390131
0.537853 -0.0545868 0.000388697
0.544092 -0.0545591 0.000387463
0.550331 -0.0545315 0.000386232
0.55657 -0.054504 0.000385005
0.562809 -0.0544766 0.000383782
0.569041 -0.0544626 0.000385419
0.575273 -0.0544369 0.00038452
0.581505 -0.0544113 0.000383623
0.587737 -0.0543857 0.000382729
0.593969 -0.0543601 0.000381836
0.600195 -0.0543482 0.000381288
0.606421 -0.0543244 0.000380637
0.612647 -0.0543006 0.000379987
0.618873 -0.0542768 0.000379337
0.625099 -0.0542531 0.00037869
0.631325 -0.0542408 0.000380473
0.637551 -0.0542185 0.000380016
0.643776 -0.0541962 0.000379559
0.650002 -0.0541739 0.000379103
0.656228 -0.0541517 0.000378647
0.662459 -0.0541406 0.000378694
0.668691 -0.0541197 0.000378404
0.674922 -0.0540989 0.000378113
0.681154 -0.0540781 0.000377823
0.687386 -0.0540573 0.000377533
0.693627 -0.0540466 0.000377806
0.699869 -0.0540271 0.000377649
0.70611 -0.0540077 0.000377492
0.712351 -0.0539882 0.000377336
0.718593 -0.0539687 0.000377179
0.724846 -0.0539585 0.000377629
0.731099 -0.0539403 0.000377548
[...]
POINT_DATA 19582
 FIELD attributes 1
U 3 19582 float
19.9506 	-0.0042612 	0.000128711 19.9513 	-0.00421185 	0.000151037 19.9519 	-0.00416249 	0.000173364 19.9525 	-0.00411314 	0.00019569 19.9532 	-0.00406378 	0.000218017 19.9538 	-0.00401443 	0.000240343 19.9084 	-0.00745093 	-0.000279249 19.9084 	-0.00744974 	-0.000279205 19.9085 	-0.00744855 	-0.00027916 19.9085 	-0.00744736 	-0.000279116 19.9496 	-0.00041667 	0.000351349 19.8979 	-0.00822051 	0.000118723 19.8979 	-0.00822106 	0.000118731 19.8979 	-0.00822162 	0.000118739 19.8979 	-0.00822218 	0.000118747 19.944 	-0.000575778 	0.000506618 19.886 	-0.0093331 	0.000377927 19.886 	-0.00933511 	0.000378009 19.886 	-0.00933713 	0.000378091 19.886 	-0.00933915 	0.000378172 19.9384 	-0.006504 	0.000492692 19.8722 	-0.0108156 	0.000470716 19.8722 	-0.0108185 	0.000470842 19.8721 	-0.0108214 	0.000470969 19.8721 	-0.0108243 	0.000471096 19.9312 	-0.00813304 	0.000421967 19.8558 	-0.0130689 	0.0004512 19.8557 	-0.0130723 	0.000451316 19.8557 	-0.0130756 	0.000451433 19.8557 	-0.013079 	0.000451549 19.921 	-0.00148092 	0.000310869 19.836 	-0.0163175 	0.000302567 19.836 	-0.0163203 	0.000302619 19.836 	-0.0163231 	0.000302672 19.8359 	-0.0163259 	0.000302724 19.9127 	-0.013607 	-0.000147912 19.8108 	-0.0212689 	-3.87109e-05 19.8108 	-0.0212684 	-3.871e-05 19.8108 	-0.021268 	-3.87092e-05 19.8108 	-0.0212675 	-3.87083e-05 19.8995 	-0.0185336 	-0.000894738 19.7741 	-0.0295795 	-0.0009057 19.7742 	-0.0295641 	-0.000905229 19.7744 	-0.0295488 	-0.000904759 19.7745 	-0.0295334 	-0.000904289 19.8792 	-0.0273497 	-0.00240774 19.7084 	-0.0469925 	-0.0028045 19.7089 	-0.0469164 	-0.00279995 19.7093 	-0.0468404 	-0.00279541 19.7098 	-0.0467645 	-0.00279088 19.8232 	-0.00768548 	-0.00737289 19.5722 	-0.0855199 	-0.0104082 19.5748 	-0.0849961 	-0.0103444 19.5774 	-0.0844755 	-0.0102811 19.58 	-0.0839582 	-0.0102181 19.7127 	-0.0678354 	-0.0163192 19.445 	-0.167454 	-0.0131734 19.4472 	-0.166781 	-0.0131204 19.4494 	-0.16611 	-0.0130677 19.4517 	-0.165442 	-0.0130151 19.7258 	-0.114078 	-0.0168151 19.4274 	-0.221728 	-0.0138731 19.4298 	-0.220768 	-0.0138131 19.4323 	-0.219813 	-0.0137533 19.4348 	-0.218861 	-0.0136938 19.7293 	-0.155497 	-0.0198048 19.4126 	-0.302289 	-0.0172954 19.4158 	-0.300617 	-0.0171998 19.419 	-0.298955 	-0.0171046 19.4223 	-0.297301 	-0.0170101 19.7293 	-0.204734 	-0.0238358 19.3783 	-0.434353 	-0.0229864 19.383 	-0.431058 	-0.022812 19.3877 	-0.427788 	-0.022639 19.3923 	-0.424544 	-0.0224673 19.7231 	-0.283056 	-0.0294573 19.2954 	-0.689825 	-0.0335379 19.3035 	-0.681856 	-0.0331505 19.3116 	-0.673982 	-0.0327676 19.3195 	-0.666201 	-0.0323894 19.7112 	-0.431667 	-0.0373404 19.2541 	-1.13721 	-0.0445971 19.2663 	-1.1187 	-0.0438713 19.2782 	-1.1005 	-0.0431577 19.2899 	-1.08261 	-0.0424561 19.7232 	-0.68759 	-0.0372515 19.4473 	-1.44148 	-0.0303823 19.4506 	-1.43298 	-0.030203 19.4538 	-1.42453 	-0.0300249 19.4571 	-1.41612 	-0.0298478 19.696 	-0.737565 	-0.0513871 19.5847 	-1.55803 	-0.0183097 19.5862 	-1.55234 	-0.0182428 19.5877 	-1.54667 	-0.0181762 19.5892 	-1.54102 	-0.0181098 19.8594 	-0.800797 	-0.0134835 19.7369 	-1.75001 	-0.00854799 19.7374 	-1.74697 	-0.00853318 19.7378 	-1.74395 	-0.00851839 19.7383 	-1.74093 	-0.00850363 19.9373 	-0.875093 	-0.000712869 19.914 	-1.99651 	0.00562014 19.9177 	-1.96366 	0.00592737 19.9319 	-1.83481 	0.0070578 19.9453 	-1.71397 	0.00812484 20.0251 	-0.985387 	0.0143995 20.1408 	-1.72556 	0.02418 20.1407 	-1.58083 	0.026143 20.1407 	-1.44643 	0.0279998 20.1409 	-1.32164 	0.0297577 20.1388 	-1.16829 	0.0302903 20.1571 	-1.21383 	0.0327987 20.1667 	-1.21708 	0.034491 20.1763 	-1.22034 	0.0361844 20.1859 	-1.22362 	0.0378789 20.1946 	-1.2266 	0.0394189 20.3186 	-1.44784 	0.0519076 20.3378 	-1.53688 	0.0497289 20.3576 	-1.62817 	0.0474277 20.3778 	-1.72175 	0.0450005 20.3144 	-1.42772 	0.056286 20.6512 	-2.05114 	0.0462491 20.7177 	-2.19569 	0.0428933 20.7548 	-2.31474 	0.0371769 20.7367 	-2.25137 	0.0362744 20.3595 	-0.996749 	0.0607018 21.0018 	-2.17867 	0.0266323 21.1531 	-2.4578 	0.0187683 21.1567 	-2.46551 	0.0188273 21.0161 	-2.15614 	0.0282958 20.4819 	-0.981085 	0.0635976 21.2188 	-1.93421 	0.0170785 21.4876 	-2.28151 	5.08202e-06 21.4876 	-2.28151 	5.08202e-06 21.3927 	-2.15082 	0.0441828 21.1512 	-1.81972 	0.161301 21.5555 	-1.91998 	0.0424925 21.7333 	-1.95672 	-0.0121156 21.7303 	-1.95332 	-0.0120945 21.5885 	-1.83138 	0.05689 21.3048 	-1.59287 	0.204922 21.7054 	-1.55807 	0.0462249 21.9101 	-1.52374 	-0.041853 21.899 	-1.51491 	-0.0416106 21.4789 	-1.17637 	-0.00875805 20.7323 	-0.574682 	0.0506112 21.5335 	-0.783492 	-0.0292531 21.9692 	-0.8938 	-0.073715 21.9487 	-0.884519 	-0.0729496 21.7598 	-0.808962 	0.0212873 21.3902 	-0.658777 	0.1835 21.8377 	-0.409363 	0.0164426 22.0461 	-0.238026 	-0.091997 22.0198 	-0.23496 	-0.0908121 21.8031 	-0.19743 	0.00543009 21.3884 	-0.133441 	0.161016 21.8368 	0.253313 	0.0102892 22.0421 	0.483931 	-0.0911026 22.016 	0.477746 	-0.0899382 21.7877 	0.445057 	-0.00532415 21.3546 	0.369798 	0.133252 21.7753 	0.835538 	0.0024643 21.9675 	1.08345 	-0.0828943 21.9445 	1.07079 	-0.0819256 21.5181 	0.809424 	-0.0686314 20.7357 	0.328373 	-0.044495 21.4383 	1.24161 	-0.0575594 21.7751 	1.68271 	-0.0636611 21.7584 	1.66679 	-0.063059 21.4157 	1.29844 	-0.0644218 20.673 	0.497488 	-0.0681607 21.3415 	1.61534 	-0.0638425 21.6029 	2.05602 	-0.0617459 21.5873 	2.03595 	-0.0611432 21.4374 	1.87007 	-0.0481665 21.0595 	1.45716 	-0.0140205 21.3542 	2.18005 	-0.0516115 21.4377 	2.39406 	-0.063231 21.4223 	2.36839 	-0.0625531 21.2864 	2.19137 	-0.0606517 20.8412 	1.6259 	-0.0556062 21.081 	2.20677 	-0.0859432 21.1063 	2.27378 	-0.0898532 21.0878 	2.23577 	-0.0883513 21.0271 	2.09883 	-0.0872581 20.406 	0.651245 	-0.0912408 20.7698 	1.85467 	-0.1006 20.7409 	1.79301 	-0.0980633 20.673 	1.66113 	-0.0941612 20.6082 	1.53515 	-0.0904228 20.2924 	0.956793 	-0.0777267 20.4038 	1.21463 	-0.0808734 20.3621 	1.12366 	-0.077994 20.3224 	1.03696 	-0.0752355 20.2846 	0.954345 	-0.0725931 20.189 	0.756427 	-0.067666 20.1909 	0.7916 	-0.0648592 20.1673 	0.745915 	-0.0625819 20.156 	0.717408 	-0.0616221 20.145 	0.689585 	-0.0606818 20.1334 	0.660355 	-0.05969 20.1372 	0.691052 	-0.0582304 20.1412 	0.722973 	-0.0567503 20.1454 	0.756166 	-0.0552486 20.1497 	0.790675 	-0.0537242 20.1287 	0.63701 	-0.0575798 20.1158 	0.814485 	-0.0438408 20.1219 	0.878154 	-0.0412062 20.1286 	0.946659 	-0.0384812 20.1358 	1.02035 	-0.0356576 20.0878 	0.555117 	-0.048374 20.0998 	1.05426 	-0.0278674 20.106 	1.12898 	-0.0256068 20.1126 	1.20879 	-0.0232566 20.1129 	1.21323 	-0.0227882 19.9822 	0.582605 	-0.00204938 20.0569 	1.0939 	-0.019721 20.0566 	1.08748 	-0.0196053 20.0563 	1.0811 	-0.0194903 20.0559 	1.07476 	-0.019376 19.9645 	0.515797 	-0.00163395 20.0196 	0.959223 	-0.0220087 20.0195 	0.952779 	-0.0218608 20.0193 	0.946378 	-0.021714 20.0192 	0.94002 	-0.0215681 19.9988 	0.369791 	-0.0293662 19.9296 	0.717293 	-0.00290159 19.9297 	0.715959 	-0.00289619 19.9298 	0.714627 	-0.0028908 19.93 	0.713297 	-0.00288543 19.8548 	0.320533 	0.0299996 19.9443 	0.442986 	-0.00643679 19.9445 	0.441176 	-0.00641049 19.9448 	0.439374 	-0.0063843 19.945 	0.437579 	-0.00635821 19.9849 	0.138037 	-0.012494 19.9762 	0.288952 	-0.00857914 19.9764 	0.287337 	-0.00853121 19.9765 	0.285732 	-0.00848354 19.9766 	0.284135 	-0.00843615 19.9336 	0.11563 	0.0142082 20.007 	0.218123 	-0.00963383 20.007 	0.216737 	-0.0095726 20.0069 	0.21536 	-0.00951176 20.0069 	0.213991 	-0.00945131 20.0086 	0.0808497 	-0.0116394 20.0371 	0.175896 	-0.0100844 20.0369 	0.174687 	-0.0100151 20.0366 	0.173487 	-0.00994627 20.0364 	0.172295 	-0.00987793 20.0212 	0.067937 	-0.01126 20.0655 	0.149599 	-0.00967313 20.065 	0.148581 	-0.00960727 20.0646 	0.147569 	-0.00954185 20.0641 	0.146564 	-0.00947688 20.0331 	0.0592869 	-0.0103979 20.0886 	0.131422 	-0.00893009 20.088 	0.130569 	-0.00887214 20.0874 	0.129722 	-0.00881457 20.0869 	0.12888 	-0.00875737 20.0436 	0.0531033 	-0.009236 20.1097 	0.117505 	-0.00801565 20.1091 	0.1168 	-0.00796757 20.1084 	0.1161 	-0.00791977 20.1078 	0.115403 	-0.00787226 20.0521 	0.0483721 	-0.00780102 20.1235 	0.105944 	-0.0067751 20.1229 	0.105392 	-0.0067398 20.1223 	0.104843 	-0.00670468 20.1216 	0.104296 	-0.00666974 20.0322 	0.0521419 	0.00491215 20.1333 	0.0972826 	-0.00555752 20.1327 	0.0968602 	-0.0055334 20.1321 	0.0964397 	-0.00550937 20.1316 	0.0960211 	-0.00548546 20.063 	0.0421245 	-0.00461177 20.1379 	0.0892996 	-0.00398498 20.1375 	0.089016 	-0.00397233 20.1371 	0.0887333 	-0.00395971 20.1366 	0.0884514 	-0.00394713 20.0431 	0.044983 	0.00526309 20.1401 	0.0831118 	-0.00290455 20.1398 	0.082918 	-0.00289778 20.1394 	0.0827246 	-0.00289102 20.1391 	0.0825317 	-0.00288428 20.0665 	0.0383453 	-0.00176674 20.1383 	0.0771505 	-0.00210648 20.1381 	0.0770188 	-0.00210288 20.1379 	0.0768872 	-0.00209929 20.1376 	0.0767559 	-0.0020957 20.0458 	0.0394893 	0.00574168 20.1351 	0.0722063 	-0.00147857 20.1349 	0.0721195 	-0.00147679 20.1348 	0.0720329 	-0.00147502 20.1346 	0.0719463 	-0.00147325 20.0643 	0.0356507 	0.000151483 20.1291 	0.0673317 	-0.000938709 20.129 	0.0672801 	-0.000937989 20.1289 	0.0672284 	-0.000937269 20.1288 	0.0671769 	-0.00093655 20.0616 	0.0343022 	0.000877841 20.1217 	0.0628073 	-0.000506197 20.1216 	0.0627812 	-0.000505986 20.1216 	0.0627551 	-0.000505776 20.1215 	0.0627291 	-0.000505566 20.0583 	0.0329247 	0.00144594 20.1131 	0.0584086 	-0.000261361 20.1131 	0.058396 	-0.000261305 20.1131 	0.0583834 	-0.000261249 20.113 	0.0583709 	-0.000261193 20.0544 	0.0313593 	0.00184984 20.104 	0.0537255 	-0.000194198 20.104 	0.0537169 	-0.000194167 20.104 	0.0537083 	-0.000194136 20.104 	0.0536997 	-0.000194105 20.0502 	0.0295972 	0.00218308 20.0947 	0.0490808 	-7.55424e-05 20.0947 	0.0490778 	-7.55377e-05 20.0947 	0.0490747 	-7.5533e-05 20.0947 	0.0490717 	-7.55283e-05 20.0284 	0.026869 	0.00521952 20.0848 	0.044567 	0.000112184 20.0848 	0.0445711 	0.000112194 20.0848 	0.0445752 	0.000112204 20.0849 	0.0445793 	0.000112215 20.0409 	0.0258696 	0.00293951 20.0733 	0.0399526 	0.000282536 20.0734 	0.0399619 	0.000282601 20.0734 	0.0399711 	0.000282666 20.0734 	0.0399803 	0.000282732 20.0351 	0.0237241 	0.00329579 20.0599 	0.0349218 	0.00040505 20.06 	0.0349333 	0.000405184 20.06 	0.0349449 	0.000405318 20.06 	0.0349564 	0.000405451 20.0282 	0.0212687 	0.00360817 20.0448 	0.0298822 	0.000520554 20.0448 	0.0298949 	0.000520774 20.0448 	0.0299075 	0.000520995 20.0449 	0.0299202 	0.000521216 20.02 	0.0182865 	0.00395465 20.0268 	0.023579 	0.000826475 20.0269 	0.0235948 	0.00082703 20.0269 	0.0236106 	0.000827585 20.0269 	0.0236265 	0.000828141 20.0098 	0.0145035 	0.00445158 20.0022 	0.0160803 	0.00132062 20.0022 	0.0160975 	0.00132204 20.0022 	0.0161147 	0.00132345 20.0022 	0.016132 	0.00132487 19.9762 	0.0144076 	0.00527635 19.9704 	0.00622571 	0.00183124 19.9704 	0.00623489 	0.00183394 19.9703 	0.00624408 	0.00183665 19.9703 	0.00625328 	0.00183935 19.9797 	0.00258654 	0.00583836 19.9291 	-0.00701086 	0.00222407 19.929 	-0.0070233 	0.00222802 19.9289 	-0.00703577 	0.00223197 19.9287 	-0.00704826 	0.00223594 19.9319 	0.00559782 	0.00574065 19.8782 	-0.0262021 	0.00248638 19.878 	-0.0262535 	0.00249127 19.8777 	-0.026305 	0.00249616 19.8775 	-0.0263567 	0.00250106 19.9313 	-0.0214497 	0.00639147 19.808 	-0.0534056 	0.00216024 19.8076 	-0.0534955 	0.00216388 19.8073 	-0.0535856 	0.00216752 19.807 	-0.0536758 	0.00217117 19.8988 	-0.0422337 	0.00482862 19.7256 	-0.0951096 	2.82536e-05 19.7256 	-0.0951117 	2.82542e-05 19.7256 	-0.0951138 	2.82548e-05 19.7256 	-0.0951158 	2.82554e-05 19.8638 	-0.0728104 	0.000159275 19.6353 	-0.15583 	-0.00637571 19.6371 	-0.155059 	-0.00634415 19.6389 	-0.154291 	-0.00631275 19.6407 	-0.153528 	-0.00628151 19.8288 	-0.119095 	-0.00858969 19.5371 	-0.26943 	-0.0172384 19.5435 	-0.265694 	-0.0169993 19.5498 	-0.26201 	-0.0167636 19.5561 	-0.258378 	-0.0165313 19.7935 	-0.198922 	-0.0208876 19.4315 	-0.455728 	-0.031652 19.4473 	-0.443084 	-0.0307738 19.4626 	-0.4308 	-0.0299207 19.4775 	-0.418867 	-0.0290918 19.6929 	-0.311351 	-0.0496641 19.5073 	-0.687135 	-0.0302496 19.5148 	-0.676703 	-0.0297904 19.5221 	-0.666434 	-0.0293383 19.5294 	-0.656324 	-0.0288933 19.7349 	-0.331007 	-0.0477682 19.6054 	-0.765544 	-0.0242777 19.6107 	-0.755348 	-0.0239543 19.6159 	-0.74529 	-0.0236354 19.621 	-0.735369 	-0.0233208 19.8471 	-0.413218 	-0.029784 19.6831 	-0.897975 	-0.0239451 19.6876 	-0.885135 	-0.0236028 19.6921 	-0.872482 	-0.0232654 19.6965 	-0.860012 	-0.0229328 19.8977 	-0.478021 	-0.0294114 19.7782 	-1.18 	-0.0195997 19.7811 	-1.16483 	-0.0193476 19.7839 	-1.14985 	-0.0190988 19.7867 	-1.13506 	-0.0188533 19.8019 	-0.766007 	-0.0544326 19.9302 	-1.93433 	0.0078069 19.9298 	-1.94526 	0.00785099 19.936 	-1.58552 	-0.0021305 19.9438 	-1.14997 	-0.0138411 20.1045 	-1.2347 	-0.030726 20.1374 	-1.39929 	-0.0253642 20.1286 	-1.35422 	-0.0267166 20.1199 	-1.30958 	-0.02805 20.1113 	-1.26539 	-0.0293646 20.1038 	-1.2264 	-0.0305194 20.2061 	-1.34345 	-0.0168443 20.3127 	-1.4766 	-0.0030456 20.4241 	-1.62643 	0.0109307 20.4918 	-1.72697 	0.0190595 20.2297 	-0.790853 	-0.000329553 21.0211 	-2.67278 	-0.00646594 21.0167 	-2.66121 	-0.00643794 21.0123 	-2.64968 	-0.00641005 21.0079 	-2.6382 	-0.00638227 20.4091 	-0.913804 	0.0127412 21.9927 	-3.14641 	0.00872937 22.0024 	-3.16175 	0.00877192 22.0121 	-3.17715 	0.00881467 22.0219 	-3.19262 	0.00885759 20.7464 	-1.14518 	0.0502517 23.0007 	-3.64229 	0.102123 24.2314 	-5.01536 	0.13147 24.4438 	-5.2671 	0.138069 22.5994 	-3.24844 	0.0981571 20.9089 	-1.39464 	0.0611982 20.7588 	-1.16879 	0.0564126 20.6087 	-0.942968 	0.0516162 20.4586 	-0.717204 	0.0468092 20.3086 	-0.491524 	0.041992 19.4878 	0 	0 19.0941 	-0.387692 	0.083625 19.2797 	-0.405182 	0.0873977 19.5228 	-0.423286 	0.0913025 19.7669 	-0.441962 	0.095331 18.8979 	0 	0 20.0118 	-0.326534 	0.142559 20.1232 	-0.341594 	0.149134 20.2356 	-0.357261 	0.155974 19.8877 	-0.168135 	0.0734051 19.5646 	0 	0 19.7396 	-0.0373207 	0.0120039 19.916 	-0.0750714 	0.0241462 20.094 	-0.113249 	0.0364257 20.2143 	-0.145241 	0.0444801 20.1051 	-0.0668352 	0.0140724 20.2255 	-0.0819657 	0.0578548 20.2531 	-0.0905615 	0.0601904 20.281 	-0.0992414 	0.0625747 20.3092 	-0.108006 	0.0650088 19.9458 	-0.0822773 	0.0323971 20.3052 	-0.0632323 	0.0746942 20.3007 	-0.059753 	0.0761512 20.2962 	-0.0562239 	0.0776381 20.2916 	-0.0526443 	0.0791556 20.1732 	-0.0055513 	0.0178071 20.1901 	0.0716095 	0.0793307 20.164 	0.0649251 	0.0814778 20.0747 	0.0538295 	0.0751587 19.7342 	0.0250677 	0.0350004 19.4414 	0 	0 19.5202 	-0.0173846 	0.0482478 19.5966 	-0.0347335 	0.0963965 19.6707 	-0.0520469 	0.144447 19.7425 	-0.069325 	0.192399 19.0106 	0 	0 19.8909 	0.141126 	0.315972 19.6949 	0.153629 	0.343966 19.5002 	0.167375 	0.374741 19.3067 	0.182499 	0.408603 18.7276 	0 	0 19.8967 	0.422508 	0.247502 19.9017 	0.712697 	0.271901 19.9064 	1.00352 	0.296836 19.9109 	1.2949 	0.32231 19.9177 	1.76599 	0.364302 19.8695 	2.28759 	0.458949 19.8392 	2.63111 	0.522078 19.8646 	2.40567 	0.48364 19.8889 	2.18831 	0.44651 19.9045 	2.04846 	0.422572 19.9041 	2.04296 	0.42271 19.9037 	2.03747 	0.422848 19.9033 	2.03197 	0.422987 19.9029 	2.02649 	0.423127 19.8842 	2.01595 	0.415865 19.894 	2.01767 	0.398638 19.8851 	2.01124 	0.377359 19.8763 	2.00471 	0.355993 19.8676 	1.99806 	0.334539 19.8663 	1.99708 	0.331396 19.8141 	1.99973 	0.286587 19.756 	2.00485 	0.241527 19.692 	2.01241 	0.196208 19.622 	2.02239 	0.150622 19.7936 	1.82838 	0.136468 19.7961 	1.73693 	0.139183 19.7984 	1.64662 	0.141907 19.8007 	1.55743 	0.144639 19.8029 	1.46934 	0.147381 19.452 	1.30874 	0.097683 19.6888 	1.52025 	0.150613 19.5305 	1.68576 	0.187534 19.3724 	1.84971 	0.224446 19.2146 	2.01207 	0.261347 18.9644 	2.2672 	0.319889 18.6342 	2.6155 	0.359593 18.3042 	2.95492 	0.40283 17.9744 	3.28528 	0.449813 17.816 	3.36841 	0.497847 17.7213 	3.06535 	0.602257 17.8286 	3.29532 	0.527525 17.7297 	3.33395 	0.565354 17.7671 	3.23358 	0.558351 17.82 	3.11925 	0.546056 17.8665 	3.02143 	0.535013 17.8634 	3.05404 	0.488993 17.8633 	3.08068 	0.44224 17.8666 	3.10103 	0.394732 17.876 	3.11221 	0.346357 18.574 	2.45714 	0.274098 17.9796 	3.26763 	0.301713 17.7278 	3.62056 	0.317312 17.7208 	3.78191 	0.270438 17.535 	3.17308 	0.276806 17.2342 	1.96411 	0.321268 17.3188 	3.12587 	0.270274 17.3486 	4.25291 	0.226017 17.2701 	4.37137 	0.221644 17.1686 	3.25292 	0.267901 17.1229 	2.0713 	0.307962 17.2292 	3.31159 	0.231762 17.3622 	4.02579 	0.174229 17.4909 	3.86417 	0.155951 17.4689 	3.62748 	0.168744 17.4595 	2.48916 	0.218004 17.486 	3.33232 	0.16229 17.4403 	3.13919 	0.180839 17.5546 	3.04424 	0.165317 17.6905 	2.96314 	0.14528 17.8159 	2.89274 	0.126643 17.8138 	2.89835 	0.125892 17.8117 	2.90396 	0.12514 17.8096 	2.90957 	0.124389 17.8075 	2.91519 	0.123638 17.8138 	2.9 	0.12322 17.5915 	3.09574 	0.121324 17.3571 	3.27813 	0.120287 17.1784 	3.49737 	0.0913362 16.9855 	3.72397 	0.0622371 17.9779 	3.08072 	0.0425742 17.4902 	3.82913 	0.00743415 16.4556 	4.07222 	0.0102164 16.3777 	3.82881 	-0.00138508 16.5822 	3.5783 	-0.0202304 16.8256 	2.13333 	-0.0463333 16.9238 	2.87398 	-0.0196627 17.5596 	2.18798 	-0.0257849 17.5747 	2.00491 	-0.0207163 17.5341 	1.8756 	-0.014948 17.3833 	1.45989 	0.00405779 17.5392 	1.63047 	-0.00732535 17.4974 	1.58264 	-0.0041833 17.4561 	1.53642 	-0.00112362 17.4153 	1.49176 	0.00185621 17.3848 	1.45907 	0.00405549 17.419 	1.41467 	0.00870537 17.461 	1.36505 	0.0135742 17.5043 	1.31501 	0.0184026 17.5489 	1.26454 	0.0231902 17.833 	1.12472 	0.0218192 17.6415 	1.192 	0.0301196 17.5995 	1.18771 	0.0334649 17.507 	1.24383 	0.0352982 17.4098 	1.30288 	0.0372271 17.8487 	0.838892 	0.0718329 17.4266 	1.36305 	0.0502017 17.3551 	1.39416 	0.0559238 17.2669 	1.46438 	0.0588686 17.1738 	1.53846 	0.0619754 17.8702 	0.802985 	0.0986396 17.2265 	1.65299 	0.0509742 17.1019 	1.71086 	0.0594508 17.0264 	1.79999 	0.0601162 17.0871 	1.69789 	0.0601862 17.6603 	0.877059 	0.0580024 17.6532 	1.32523 	0.0623539 17.6299 	1.5202 	0.0646766 17.5959 	1.54203 	0.0656052 17.6718 	1.30023 	0.0796134 18.0751 	0.263484 	0.133411 17.5931 	1.08135 	0.0761182 17.5049 	1.19334 	0.0701715 17.4691 	1.21046 	0.0711783 17.4356 	1.14583 	0.0699407 17.4303 	0.277881 	0.0465588 17.3877 	1.01 	0.0544501 17.359 	1.05637 	0.0553941 17.3537 	1.03889 	0.0588757 17.3636 	0.996922 	0.0641191 17.8589 	0.281206 	0.123769 17.179 	0.877774 	0.059912 17.1797 	0.845904 	0.0619841 17.1841 	0.815747 	0.0655832 17.186 	0.786965 	0.0691633 17.6109 	0.29537 	0.106548 16.9492 	0.708671 	0.0719544 16.9388 	0.687276 	0.0711701 16.939 	0.666372 	0.0730938 16.9375 	0.646316 	0.0750194 17.3343 	0.318286 	0.087917 16.7171 	0.591852 	0.0771138 16.6992 	0.576751 	0.075606 16.6983 	0.561902 	0.0765182 16.6961 	0.547586 	0.0774425 16.8316 	0.299925 	0.0471779 16.5157 	0.507321 	0.076202 16.492 	0.495861 	0.0740373 16.4928 	0.485007 	0.0742512 16.4927 	0.474489 	0.0744801 16.7608 	0.357277 	0.0705358 16.3386 	0.445393 	0.0687439 16.3126 	0.435953 	0.0651697 16.3193 	0.427548 	0.0648039 16.3253 	0.419356 	0.0644532 16.4656 	0.371516 	0.0609558 16.2452 	0.398247 	0.0559559 16.2054 	0.38873 	0.0483593 16.2192 	0.383013 	0.0476832 16.2328 	0.377386 	0.0470177 16.2432 	0.373061 	0.0465062 16.2378 	0.375866 	0.0470382 16.2323 	0.378695 	0.0475747 16.2268 	0.381549 	0.0481157 16.2212 	0.384428 	0.0486612 16.2119 	0.376169 	0.0468937 16.1122 	0.390747 	0.0399092 16.0559 	0.39859 	0.0368069 16.0363 	0.411508 	0.0394504 16.0151 	0.424934 	0.0421887 15.9866 	0.371 	0.0296682 15.8784 	0.443946 	0.0385655 15.8171 	0.451824 	0.0352533 15.7934 	0.467676 	0.0389991 15.7674 	0.484231 	0.0428848 15.9196 	0.365123 	0.0284563 15.6314 	0.523837 	0.0521124 15.5876 	0.543991 	0.0567481 15.5404 	0.56511 	0.0615786 15.4528 	0.574823 	0.0574806 15.755 	0.360247 	0.017148 15.1916 	0.606283 	0.0569419 15.1302 	0.631348 	0.0628736 15.0637 	0.657719 	0.0690669 14.957 	0.668473 	0.0648943 15.5982 	0.357665 	0.00691309 14.6025 	0.701084 	0.0639707 14.5142 	0.73207 	0.07