# vtk DataFile Version 2.0
track0
ASCII
DATASET POLYDATA
POINTS 19582 float
-1.001 -0.05 0.0011
-1.00079 -0.05 0.0011
-1.00058 -0.0500001 0.0011
-1.00038 -0.0500001 0.0011
-1.00017 -0.0500002 0.00110001
-0.999962 -0.0500002 0.00110001
-0.98746 -0.0500027 0.00110016
-0.974958 -0.0500074 0.00109998
-0.962456 -0.0500121 0.00109981
-0.949954 -0.0500168 0.00109963
-0.937452 -0.0500214 0.00109946
-0.924948 -0.0500217 0.00109968
-0.912445 -0.0500269 0.00109975
-0.899941 -0.050032 0.00109983
-0.887437 -0.0500372 0.0010999
-0.874933 -0.0500424 0.00109998
-0.862428 -0.0500427 0.00110029
-0.849922 -0.0500486 0.00110053
-0.837416 -0.0500545 0.00110077
-0.82491 -0.0500603 0.00110101
-0.812404 -0.0500662 0.00110125
-0.799896 -0.0500703 0.00110155
-0.787388 -0.0500771 0.00110185
-0.774879 -0.0500839 0.00110215
-0.762371 -0.0500907 0.00110244
-0.749862 -0.0500975 0.00110274
-0.737351 -0.0501026 0.00110301
-0.724839 -0.0501109 0.00110329
-0.712327 -0.0501191 0.00110357
-0.699816 -0.0501274 0.00110386
-0.687304 -0.0501356 0.00110414
-0.674789 -0.0501365 0.00110434
-0.662273 -0.0501468 0.00110453
-0.649757 -0.0501571 0.00110472
-0.637242 -0.0501674 0.00110491
-0.624726 -0.0501777 0.0011051
-0.612206 -0.0501863 0.00110501
-0.599685 -0.0501997 0.00110498
-0.587165 -0.0502132 0.00110496
-0.574644 -0.0502266 0.00110494
-0.562124 -0.05024 0.00110491
-0.549598 -0.0502517 0.00110435
-0.537072 -0.0502704 0.00110377
-0.524546 -0.0502892 0.0011032
-0.51202 -0.0503079 0.00110263
-0.499494 -0.0503266 0.00110205
-0.486962 -0.0503438 0.00110054
-0.47443 -0.0503737 0.00109875
-0.461898 -0.0504036 0.00109697
-0.449366 -0.0504333 0.0010952
-0.436834 -0.0504631 0.00109342
-0.424293 -0.0504679 0.00108876
-0.411752 -0.0505227 0.00108209
-0.39921 -0.0505772 0.00107546
-0.386669 -0.0506313 0.00106887
-0.374128 -0.0506851 0.00106233
-0.367853 -0.0507067 0.00105713
-0.361577 -0.0507607 0.00105288
-0.355302 -0.0508145 0.00104865
-0.349027 -0.0508681 0.00104443
-0.342751 -0.0509215 0.00104023
-0.336478 -0.0509578 0.00103489
-0.330205 -0.0510294 0.00103041
-0.323932 -0.0511007 0.00102595
-0.317659 -0.0511716 0.00102151
-0.311385 -0.0512423 0.00101709
-0.305109 -0.0512917 0.00101079
-0.298833 -0.0513895 0.0010052
-0.292557 -0.0514866 0.000999636
-0.286282 -0.0515832 0.000994108
-0.280004 -0.0516793 0.00098861
-0.273728 -0.0517445 0.000981028
-0.267453 -0.0518851 0.000973585
-0.261178 -0.0520246 0.0009662
-0.254903 -0.0521631 0.000958873
-0.248624 -0.0523006 0.000951598
-0.242358 -0.0523905 0.000942239
-0.236096 -0.0526144 0.000931354
-0.229833 -0.0528356 0.000920598
-0.22357 -0.0530542 0.000909972
-0.217295 -0.0532706 0.000899452
-0.211049 -0.0534074 0.000887619
-0.204812 -0.0537757 0.000873173
-0.198575 -0.0541379 0.000858971
-0.192337 -0.0544939 0.000845007
-0.186067 -0.0548459 0.000831206
-0.182944 -0.0549547 0.000825307
-0.179828 -0.0551857 0.000820439
-0.176711 -0.0554153 0.0008156
-0.173595 -0.0556435 0.00081079
-0.170452 -0.0558722 0.000805969
-0.167328 -0.0559892 0.000797819
-0.164212 -0.0562372 0.000794905
-0.161095 -0.0564841 0.000792002
-0.157979 -0.0567302 0.00078911
-0.154833 -0.0569777 0.000786202
-0.151686 -0.0571046 0.000784066
-0.14855 -0.0573827 0.000782707
-0.145413 -0.0576604 0.000781351
-0.142276 -0.0579375 0.000779997
-0.139103 -0.0582173 0.00077863
-0.135928 -0.0583567 0.000778517
-0.132765 -0.0586738 0.000779409
-0.129602 -0.0589856 0.000780351
-0.126437 -0.059277 0.000781472
-0.123236 -0.059552 0.000782775
-0.120024 -0.0597101 0.000785086
-0.116818 -0.0599847 0.000788934
-0.113611 -0.0602365 0.000793096
-0.110403 -0.0604669 0.000797557
-0.107185 -0.0606781 0.000802312
-0.106944 -0.060692 0.000802673
-0.106704 -0.0607065 0.000803064
-0.106464 -0.060721 0.000803475
-0.106224 -0.0607355 0.000803906
-0.106005 -0.0607487 0.000804316
-0.10299 -0.0609319 0.000810202
-0.0999763 -0.0611466 0.0008179
-0.0969637 -0.0613743 0.000825266
-0.0939522 -0.0616151 0.000832282
-0.0909377 -0.0618698 0.000838939
-0.0876934 -0.0620978 0.000847929
-0.084457 -0.0624193 0.000855176
-0.0812228 -0.0627621 0.000861872
-0.0779906 -0.0631225 0.000867662
-0.0747525 -0.0634741 0.000873327
-0.0715968 -0.0636286 0.000882735
-0.0684543 -0.0639546 0.00088672
-0.065316 -0.0643192 0.000889505
-0.0621778 -0.064685 0.000892297
-0.0590485 -0.065006 0.000896511
-0.0560736 -0.0651485 0.000905748
-0.0531074 -0.0654189 0.000908135
-0.0501457 -0.0657334 0.000908136
-0.0471839 -0.0660478 0.000908137
-0.044218 -0.066346 0.000914262
-0.0412762 -0.0665991 0.000936696
-0.0383352 -0.0668611 0.000942494
-0.0353944 -0.0671258 0.000940855
-0.0324535 -0.0673902 0.000939218
-0.0295104 -0.0676399 0.000946974
-0.0265347 -0.0678623 0.000975596
-0.0235582 -0.068076 0.000981935
-0.0205812 -0.068283 0.000976248
-0.0176042 -0.068489 0.000970591
-0.0146297 -0.0686519 0.000969379
-0.0116182 -0.0687354 0.00097673
-0.00860753 -0.0688449 0.00097264
-0.00559738 -0.0689674 0.00096254
-0.00258719 -0.0690887 0.000952535
0.000426593 -0.0692007 0.000955484
0.0034617 -0.0692942 0.000981521
0.00649782 -0.0693511 0.000983807
0.00953427 -0.0693839 0.000971136
0.0125707 -0.0694163 0.000958613
0.0156024 -0.0694438 0.000959368
0.0186449 -0.0694627 0.000982273
0.0216873 -0.0694274 0.000983706
0.0247292 -0.0693607 0.000971134
0.0277711 -0.0692946 0.000958707
0.0308132 -0.0692325 0.000957964
0.0338427 -0.06918 0.000976868
0.0368705 -0.0690639 0.000977211
0.0398969 -0.0689146 0.000965791
0.0429233 -0.0687669 0.000954492
0.0459556 -0.0686529 0.000944821
0.0489734 -0.0686051 0.000938345
0.0519866 -0.0684306 0.000930255
0.0549958 -0.068198 0.000921457
0.0580052 -0.0679675 0.000912736
0.0610241 -0.0677845 0.000903655
0.0640577 -0.0677115 0.000893652
0.0670835 -0.0674824 0.000884601
0.0701043 -0.0671949 0.000875967
0.0731254 -0.06691 0.00086741
0.0761554 -0.0666457 0.000860602
0.0792607 -0.0664308 0.000858534
0.0823574 -0.0661147 0.00085105
0.0854509 -0.0657692 0.000841926
0.0885448 -0.0654272 0.000832891
0.0916621 -0.0651062 0.000824009
0.0948226 -0.0648597 0.000815577
0.0979753 -0.0645296 0.000802724
0.101127 -0.0641901 0.000789306
0.104279 -0.0638559 0.000776099
0.107454 -0.063539 0.000762923
0.110646 -0.0634371 0.000748653
0.113826 -0.0631531 0.000733248
0.117008 -0.0628781 0.000718207
0.12019 -0.0626224 0.00070371
0.123402 -0.0623832 0.000689621
0.126587 -0.0622329 0.000677418
0.129771 -0.0620434 0.000664799
0.132955 -0.0618677 0.000652602
0.136141 -0.0617052 0.00064081
0.13933 -0.0615551 0.000629397
0.140958 -0.0614941 0.000623941
0.142586 -0.0614303 0.000618712
0.144213 -0.0613701 0.00061366
0.145841 -0.0613122 0.000608683
0.147594 -0.0612522 0.000603404
0.149109 -0.0612025 0.000598913
0.150623 -0.0611505 0.000594533
0.152138 -0.0610961 0.000590265
0.153652 -0.0610393 0.000586112
0.155168 -0.0609798 0.000582072
0.158315 -0.0608802 0.000573068
0.161462 -0.0607528 0.000566211
0.164608 -0.0606155 0.000559768
0.167753 -0.0604676 0.000553755
0.170905 -0.0603079 0.000548173
0.174044 -0.0602211 0.000540616
0.177179 -0.0600567 0.000536269
0.180313 -0.0598807 0.000532277
0.183447 -0.0596923 0.000528653
0.186597 -0.0595023 0.000525084
0.189732 -0.0594109 0.000524762
0.192862 -0.0592402 0.000521684
0.195993 -0.0590704 0.000518623
0.199124 -0.0589016 0.000515581
0.202269 -0.0587331 0.000512543
0.205402 -0.0586522 0.000512287
0.208532 -0.0585022 0.000508845
0.211663 -0.0583532 0.000505427
0.214793 -0.0582052 0.000502031
0.217933 -0.0580578 0.000498648
0.224191 -0.0579421 0.000489459
0.230446 -0.0577169 0.000488548
0.236701 -0.0574922 0.000487639
0.242956 -0.057268 0.000486732
0.249221 -0.0570437 0.000485825
0.255492 -0.0569425 0.0004953
0.261763 -0.0568032 0.000493277
0.268033 -0.0566645 0.000491261
0.274303 -0.0565264 0.000489254
0.280576 -0.0563888 0.000487254
0.286864 -0.0563453 0.000483323
0.293152 -0.0562544 0.000480623
0.29944 -0.0561639 0.000477937
0.305728 -0.056074 0.000475267
0.312017 -0.0559845 0.000472611
0.318314 -0.055948 0.0004771
0.324612 -0.0558794 0.000474068
0.330909 -0.0558111 0.000471055
0.337206 -0.0557434 0.000468061
0.343504 -0.055676 0.000465086
0.349803 -0.0556505 0.000461421
0.356102 -0.0555952 0.000458251
0.362401 -0.0555403 0.000455103
0.3687 -0.0554858 0.000451976
0.374999 -0.0554316 0.00044887
0.381289 -0.0554103 0.000445333
0.387579 -0.0553634 0.000442301
0.393869 -0.0553168 0.000439289
0.400159 -0.0552705 0.000436298
0.406449 -0.0552246 0.000433327
0.412727 -0.055206 0.000430068
0.419005 -0.055165 0.000427278
0.425282 -0.0551241 0.000424505
0.43156 -0.0550836 0.00042175
0.437837 -0.0550433 0.000419014
0.4441 -0.0550267 0.000416128
0.450362 -0.0549901 0.000413632
0.456625 -0.0549538 0.00041115
0.462887 -0.0549176 0.000408684
0.46915 -0.0548817 0.000406232
0.475399 -0.0548666 0.000403801
0.481649 -0.0548337 0.000401697
0.487899 -0.054801 0.000399603
0.494148 -0.0547684 0.000397521
0.500398 -0.054736 0.000395449
0.506641 -0.0547198 0.00039698
0.512884 -0.0546896 0.000395257
0.519128 -0.0546596 0.000393541
0.525371 -0.0546296 0.000391833
0.531614 -0.0545999 0.000390131
0.537853 -0.0545868 0.000388697
0.544092 -0.0545591 0.000387463
0.550331 -0.0545315 0.000386232
0.55657 -0.054504 0.000385005
0.562809 -0.0544766 0.000383782
0.569041 -0.0544626 0.000385419
0.575273 -0.0544369 0.00038452
0.581505 -0.0544113 0.000383623
0.587737 -0.0543857 0.000382729
0.593969 -0.0543601 0.000381836
0.600195 -0.0543482 0.000381288
0.606421 -0.0543244 0.000380637
0.612647 -0.0543006 0.000379987
0.618873 -0.0542768 0.000379337
0.625099 -0.0542531 0.00037869
0.631325 -0.0542408 0.000380473
0.637551 -0.0542185 0.000380016
0.643776 -0.0541962 0.000379559
0.650002 -0.0541739 0.000379103
0.656228 -0.0541517 0.000378647
0.662459 -0.0541406 0.000378694
0.668691 -0.0541197 0.000378404
0.674922 -0.0540989 0.000378113
0.681154 -0.0540781 0.000377823
0.687386 -0.0540573 0.000377533
0.693627 -0.0540466 0.000377806
0.699869 -0.0540271 0.000377649
0.70611 -0.0540077 0.000377492
0.712351 -0.0539882 0.000377336
0.718593 -0.0539687 0.000377179
0.724846 -0.0539585 0.000377629
0.731099 -0.0539403 0.000377548
[...]
POINT_DATA 19582
 FIELD attributes 2
p 1 19582 float
18.5026 18.5081 18.5137 18.5192 18.5248 18.5303 18.826 19.1218 19.4176 19.7134 20.0506 20.4172 20.7668 21.1164 21.4661 21.8124 22.2 22.582 22.964 23.346 23.7397 24.2011 24.6423 25.0834 25.5246 25.9667 26.4893 27.0019 27.5145 28.0271 28.5598 29.1995 29.7894 30.3793 30.9693 31.5559 32.2608 32.9339 33.6071 34.2802 34.9955 35.8903 36.6439 37.3976 38.1513 38.8859 39.8271 40.6453 41.4635 42.2817 43.1946 44.5912 45.4452 46.2992 47.1533 48.5154 49.1547 49.6987 50.2898 50.881 51.3753 51.7712 51.8279 51.8846 52.2613 52.3984 52.7747 52.9174 52.7331 52.5489 52.2747 52.1274 51.4774 50.8277 50.5656 50.1012 49.7539 48.83 47.408 45.9873 44.6109 42.8975 40.4779 38.0618 36.0179 33.0654 31.6506 30.2619 28.8296 27.3978 26.035 23.7477 21.4432 19.1394 16.9672 14.9438 12.2388 9.60324 7.03895 4.47494 1.90356 -1.69711 -4.57081 -7.36521 -10.1542 -12.7693 -16.2485 -19.1789 -22.1082 -25.0365 -27.9791 -28.2591 -28.4711 -28.683 -28.8949 -29.0874 -31.7683 -34.3937 -37.0132 -39.6264 -41.8503 -43.882 -46.2726 -48.6176 -50.8873 -52.7648 -53.782 -55.7401 -57.9941 -59.4414 -61.6694 -61.9832 -62.4925 -63.6235 -65.2557 -67.4957 -66.6483 -66.4528 -66.7419 -67.5402 -68.97 -67.6313 -66.9105 -66.9441 -67.6413 -68.8475 -67.8773 -67.4119 -67.5509 -68.5506 -70.2523 -69.019 -68.3687 -68.6044 -69.5402 -71.0376 -69.9255 -69.2611 -69.4235 -70.1597 -71.312 -69.992 -69.261 -69.3327 -69.7009 -70.4707 -69.3348 -68.716 -68.7297 -69.05 -69.6582 -68.2817 -67.8741 -68.1126 -69.0697 -71.0683 -69.6402 -69.1263 -69.0184 -69.4447 -70.5808 -68.4062 -67.0365 -65.0662 -63.1746 -62.3618 -60.0344 -57.7603 -55.4695 -53.1596 -51.4171 -49.3973 -47.3826 -45.3591 -43.3274 -41.4007 -40.4377 -39.4797 -38.5188 -37.5571 -36.521 -35.6117 -34.7029 -33.7946 -32.8868 -31.903 -30.2304 -28.5736 -26.9169 -25.2603 -23.4259 -21.9466 -20.509 -19.0696 -17.6353 -16.0331 -14.7346 -13.2908 -11.8474 -10.4041 -8.82581 -7.76752 -6.88704 -6.00679 -5.126 -4.43507 -3.21813 -2.19184 -1.16564 -0.102619 1.2555 1.20769 1.36592 1.52399 1.68191 1.62457 1.03695 0.501788 -0.0335236 -0.568978 -1.36925 -2.55576 -3.36122 -4.16674 -4.97234 -5.77063 -6.80993 -7.74486 -8.67985 -9.61848 -10.7868 -12.0589 -13.0834 -14.1038 -15.1242 -16.1135 -17.1988 -18.1955 -19.1922 -20.1957 -21.2319 -22.2584 -23.1533 -24.0443 -24.9352 -25.7581 -26.5817 -27.3199 -28.0581 -28.8006 -29.4897 -30.1612 -30.7217 -31.2783 -31.8349 -32.3131 -32.7665 -33.1307 -33.4948 -33.8625 -34.1522 -34.4148 -34.5854 -34.755 -34.9247 -35.0099 -35.0792 -35.0715 -35.0637 -35.0555 -34.9662 -34.8811 -34.7255 -34.5699 -34.4143 -34.1915 -33.9783 -33.7079 -33.4375 -33.1674 -32.8403 -32.5215 -32.1568 -31.7936 -31.4303 -31.0183 -30.6228 -30.1918 -29.7608 -29.3243 -28.8421 -28.3881 -27.9152 -27.4466 -26.978 -26.4828 -26.0113 -25.5188 -25.0262 -24.5331 -24.0153 -23.4934 -22.9488 -22.4056 -21.8625 -21.2973 -20.6877 -20.0598 -19.4318 -18.7978 -18.1363 -17.3914 -16.6405 -15.8993 -15.1582 -14.3969 -13.5253 -12.6425 -11.7597 -10.8615 -9.93146 -8.82398 -7.7287 -6.6553 -5.58189 -4.49191 -3.18268 -1.87439 -0.566094 0.780139 2.17621 3.8904 5.54439 7.13431 8.72422 10.3355 12.2735 14.1844 16.0954 18.107 20.2208 22.7567 25.1176 27.3324 29.5471 31.7738 34.273 36.6474 39.0218 41.595 44.3289 47.2682 49.7441 51.9621 54.18 56.3358 58.2052 59.7009 61.1968 62.9671 64.9457 66.375 66.6274 66.5329 66.4394 66.0715 64.4586 61.9051 59.3551 57.045 55.6092 53.9307 52.0874 49.574 47.0303 44.3915 41.0837 37.4718 33.8619 30.6802 27.4258 23.0814 18.5089 13.5832 8.66069 3.86182 -2.94576 -9.72604 -16.5024 -23.275 -29.5445 -39.7064 -48.1419 -56.0658 -63.7976 -71.4016 -72.4721 -73.1169 -73.7618 -74.407 -74.9821 -83.9725 -92.9595 -101.942 -111.015 -117.68 -127.668 -138.542 -149.419 -160.301 -168.09 -178.239 -183.356 -188.395 -193.301 -194.264 -208.429 -216.75 -219.383 -211.601 -204.918 -205.496 -206.089 -206.695 -207.316 -207.781 -208.588 -210.85 -213.236 -215.622 -216.857 -215.273 -212.163 -209.056 -204.087 -200.428 -199.085 -197.737 -196.383 -195.031 -194.126 -187.516 -180.483 -173.448 -166.41 -159.721 -155.03 -150.282 -145.534 -140.788 -136.449 -134.647 -133.041 -131.458 -129.972 -128.65 -128.089 -127.528 -126.967 -126.405 -125.797 -124.852 -122.384 -119.94 -117.523 -113.58 -110.57 -108.039 -105.528 -103.036 -99.0478 -102.706 -103.973 -97.8892 -91.9534 -88.0873 -87.9279 -87.7686 -87.6093 -87.4499 -87.2782 -86.392 -85.5283 -84.6653 -83.8028 -83.6771 -81.873 -80.0771 -78.2894 -76.5102 -73.6197 -71.5191 -69.4142 -67.305 -65.1917 -63.4679 -62.356 -61.4455 -60.5406 -59.6414 -58.2236 -56.2598 -54.3329 -52.4439 -50.6984 -49.3089 -48.8906 -48.39 -48.0199 -47.6592 -47.3459 -46.6924 -46.0439 -45.4002 -44.7597 -43.8761 -43.8969 -43.5515 -43.4431 -42.6913 -41.3565 -40.6892 -40.112 -39.3987 -38.3552 -37.1489 -35.9854 -35.0514 -34.3925 -33.7241 -33.2961 -32.4854 -31.9094 -31.2772 -30.6313 -30.0432 -30.0274 -30.0116 -29.9958 -29.98 -29.9572 -29.7937 -29.643 -29.5267 -29.432 -28.827 -29.3184 -29.3159 -28.0614 -26.8523 -26.0004 -25.6529 -25.1613 -24.6424 -24.1238 -23.5988 -23.6823 -23.6293 -23.5778 -23.5277 -23.4908 -23.4416 -23.3941 -23.3486 -23.3049 -23.4342 -23.6654 -24.0016 -24.3404 -24.6751 -25.4238 -25.6764 -25.7746 -25.8598 -25.9447 -26.0506 -25.3876 -25.091 -24.7859 -24.6607 -25.199 -24.8394 -24.4682 -24.0854 -23.749 -23.3846 -22.0102 -21.1882 -20.3683 -19.6199 -19.5631 -18.6196 -18.0129 -17.4377 -16.8745 -16.6886 -15.8974 -15.3689 -14.8372 -14.3046 -13.9755 -13.2306 -12.7006 -12.1669 -11.6326 -11.2604 -10.6127 -10.1078 -9.60091 -9.09365 -8.69308 -8.13667 -7.67888 -7.22053 -6.76192 -6.35475 -5.91506 -5.52672 -5.1371 -4.74727 -4.37691 -4.10599 -3.85633 -3.60202 -3.34758 -3.14876 -3.06883 -2.98891 -2.90901 -2.82912 -2.75313 -2.48092 -2.20921 -1.93506 -1.66113 -1.40417 -1.15014 -0.916752 -0.683194 -0.449915 -0.239462 0.000855902 0.2025 0.403842 0.606036 0.755122 1.00359 1.17681 1.3497 1.52385 1.60456 1.86197 2.00467 2.14701 2.29076 2.28976 2.57021 2.67974 2.78887 2.88823 2.83746 3.07369 3.17939 3.25933 3.30294 3.27579 3.42779 3.53401 3.59865 3.60956 3.60112 3.74452 3.86656 3.91723 3.90895 3.90093 4.03642 4.14594 4.18284 4.15707 4.11722 4.24143 4.32897 4.34837 4.32527 4.27866 4.37074 4.42515 4.43568 4.41217 4.351 4.46258 4.5159 4.52821 4.49574 4.37931 4.55477 4.59422 4.6086 4.60819 4.49561 4.64899 4.67435 4.68845 4.68033 4.5403 4.69519 4.67839 4.68742 4.69701 4.52961 4.7029 4.7098 4.71628 4.69491 4.52981 4.67713 4.65023 4.65487 4.66058 4.53022 4.65349 4.65646 4.65786 4.62635 4.4883 4.57817 4.54088 4.53477 4.53078 4.41413 4.50219 4.49354 4.48214 4.44168 4.30824 4.37091 4.32852 4.31337 4.30168 4.19704 4.26372 4.24979 4.23172 4.18878 4.07807 4.11108 4.06769 4.04551 4.02754 3.93872 3.97854 3.9554 3.92812 3.88366 3.78308 3.79737 3.75181 3.71974 3.69148 3.60979 3.62745 3.59706 3.56327 3.51909 3.43269 3.43532 3.39391 3.36073 3.33059 3.26121 3.26906 3.24027 3.20875 3.17062 3.09963 3.09847 3.0636 3.03416 3.0072 2.95004 2.95437 2.92998 2.90326 2.87187 2.81496 2.81266 2.78384 2.75891 2.7361 2.68983 2.68982 2.66746 2.64335 2.6163 2.56919 2.56419 2.53891 2.51573 2.4939 2.45359 2.44996 2.42812 2.40542 2.38146 2.34137 2.33446 2.3112 2.28852 2.26625 2.22953 2.22196 2.19992 2.17794 2.15603 2.12168 2.11403 2.094 2.07341 2.05236 2.02023 2.01159 1.99165 1.9725 1.95427 1.92559 1.91915 1.90211 1.88392 1.86469 1.83644 1.82687 1.80796 1.79047 1.77449 1.75016 1.74412 1.72983 1.71378 1.69598 1.67082 1.66226 1.6459 1.63147 1.61889 1.59909 1.59471 1.58305 1.56955 1.55408 1.5322 1.52402 1.50897 1.49624 1.48562 1.46915 1.46587 1.45687 1.44561 1.43175 1.41257 1.40587 1.39337 1.38353 1.37595 1.36324 1.36127 1.35417 1.34489 1.33294 1.31665 1.30992 1.29853 1.28996 1.28363 1.27312 1.2719 1.26655 1.25893 1.24837 1.23396 1.22771 1.21722 1.20974 1.20454 1.19558 1.19403 1.18876 1.18125 1.17073 1.15691 1.1506 1.1407 1.1339 1.12938 1.12176 1.12145 1.11814 1.11252 1.10369 1.09214 1.08712 1.07911 1.07432 1.07178 1.06645 1.06651 1.06379 1.05892 1.05092 1.04051 1.03513 1.02715 1.02231 1.0196 1.01452 1.01472 1.01261 1.00837 1.00093 0.991405 0.986654 0.979602 0.975601 0.973603 0.969456 0.969228 0.966867 0.962621 0.955463 0.94639 0.941248 0.934015 0.929863 0.927682 0.923656 0.924155 0.922869 0.919592 0.913161 0.905067 0.901086 0.895262 0.892466 0.891564 0.888991 0.889403 0.888172 0.885161 0.879273 0.87192 0.867788 0.862076 0.859219 0.85811 0.855545 0.855973 0.854977 0.852228 0.84659 0.839623 0.83473 0.828378 0.8249 0.823151 0.82007 0.81886 0.816351 0.812174 0.805204 0.797047 0.791512 0.784697 0.780671 0.778297 0.774758 0.774153 0.772422 0.769027 0.762801 0.755531 0.750721 0.744778 0.741604 0.740048 0.737433 0.736072 0.733669 0.729728 0.723136 0.715588 0.709354 0.702104 0.697452 0.6943 0.6902 0.687713 0.684308 0.679419 0.671943 0.66361 0.65661 0.64869 0.643191 0.639076 0.6341 0.629833 0.624723 0.618299 0.609561 0.600042 0.59148 0.58209 0.575167 0.569642 0.563347 0.558843 0.553601 0.546962 0.537843 0.528033 0.519817 0.510856 0.504158 0.498732 0.492611 0.486918 0.480547 0.473042 0.463506 0.453337 0.443989 0.433979 0.425881 0.418848 0.411192 0.404116 0.396433 0.387729 0.37719 0.366079 0.354782 0.342878 0.332724 0.323539 0.313784 0.303668 0.292999 0.281406 0.26814 0.254356 0.240978 0.227056 0.214948 0.203838 0.192214 0.182613 0.172522 0.161257 0.147856 0.133992 0.120067 0.105631 0.0944316 0.0850061 0.0750999 0.0687753 0.0620388 0.052919 0.039442 0.0255748 -0.00224543 -0.0305975 -0.046667 -0.0560319 -0.0659287 -0.0299502 0.00623034 0.0382861 0.0627689 0.0873315 0.141206 0.193735 0.235257 0.256112 0.2756 0.298619 0.321483 0.344346 0.364617 0.372583 0.417657 0.461576 0.505496 0.522269 0.521856 0.319577 0.0969189 -0.125739 -0.348396 -0.571571 -0.61195 -0.65244 -0.69293 -0.73342 -0.757827 -0.809242 -0.861252 -0.913261 -0.965271 -0.958197 -1.03155 -1.10465 -1.17775 -1.25085 -1.29663 -0.846869 -0.397115 0.0526387 0.502393 0.884166 0.885085 0.884077 0.883069 0.882062 0.881012 0.799057 0.710868 0.622678 0.534488 0.44629 0.396505 0.343323 0.290141 0.236959 0.183776 0.158444 0.151528
18.5874 18.5935 18.5996 18.6057 18.6118 18.6179 18.861 19.1444 19.3977 19.6475 19.9852 20.3489 20.7064 21.0633 21.4147 21.7747 22.173 22.5583 22.9535 23.3495 23.7477 24.2053 24.6584 25.1111 25.5543 26.0125 26.549 27.0632 27.5899 28.1167 28.6493 29.283 29.8973 30.5116 31.1052 31.7166 32.4611 33.142 33.8591 34.5759 35.2966 36.1816 37.0156 37.849 38.628 39.4233 40.4421 41.3122 42.2616 43.209 44.1692 45.3144 46.3026 47.2858 48.2373 49.3512 49.9386 50.5301 51.1196 51.7063 52.402 52.608 52.7122 52.7391 52.6535 52.5932 52.5845 52.5758 52.567 52.5581 52.541 52.0936 51.6361 51.1915 50.7572 49.9771 48.7232 47.2993 46.1253 45.0448 43.706 41.0072 38.4153 36.1774 32.7377 29.46 26.5191 23.5603 20.3194 15.1107 9.85402 8.34303 6.5436 4.71491 2.86077 0.855874 -1.18465 -3.32321 -4.89972 -6.48721 -8.3721 -9.61167 -11.062 -12.52 -14.0231 -15.7037 -16.8932 -17.7454 -18.6159 -19.5023 -20.5073 -20.7753 -21.0673 -21.3688 -21.634 -21.6005 -21.7115 -21.8642 -21.8663 -21.8569 -21.5626 -21.2887 -21.0977 -21.0715 -21.0591 -20.8524 -20.6286 -20.5379 -20.5118 -20.1582 -19.4448 -19.7017 -19.5291 -19.3346 -19.1451 -19.005 -18.5234 -18.2674 -18.016 -17.7233 -17.2246 -17.1187 -16.8887 -16.6771 -16.4701 -16.2653 -16.2556 -16.2491 -16.2426 -16.2361 -16.2296 -16.1166 -16.0076 -15.9399 -15.9533 -16.0604 -16.2064 -16.5511 -16.7044 -16.8178 -17.3154 -17.4712 -17.8625 -18.245 -18.5494 -18.9805 -19.1343 -19.4535 -19.8201 -20.2183 -20.7459 -20.8812 -21.1651 -21.5147 -21.9485 -22.5204 -22.4999 -22.7075 -23.1677 -23.7622 -24.5175 -24.807 -25.2851 -25.8503 -26.3151 -27.1169 -27.189 -27.6276 -28.082 -28.5417 -29.2641 -29.4698 -29.8032 -30.1415 -30.3191 -30.5756 -30.7128 -30.8724 -30.887 -30.9051 -31.1211 -30.9716 -30.9016 -30.8331 -30.7661 -30.685 -30.6471 -30.6094 -30.5719 -30.5345 -30.5248 -29.7106 -28.8611 -28.1844 -26.898 -25.408 -23.389 -21.4654 -20.2563 -19.0187 -17.6731 -15.7998 -14.1481 -13.1051 -12.2637 -11.3231 -10.5932 -10.0909 -9.56357 -9.03344 -8.99586 -8.47637 -8.53741 -8.59913 -8.68327 -8.8577 -9.13086 -9.55376 -10.021 -10.4888 -10.9984 -11.5741 -12.215 -12.8562 -13.4977 -14.2574 -14.336 -14.4146 -14.4932 -14.5718 -14.6494 -15.4733 -16.3833 -17.2935 -18.204 -19.067 -20.0014 -20.9162 -21.8313 -22.7465 -23.6032 -24.4674 -25.3066 -26.1458 -26.9852 -27.7818 -28.3923 -28.9804 -29.5685 -30.1568 -30.7703 -30.878 -30.9832 -31.0869 -31.1906 -31.3014 -31.7943 -32.296 -32.7979 -33.3001 -33.8758 -34.1152 -34.4133 -34.7116 -35.0102 -35.415 -35.4746 -35.5956 -35.7168 -35.8382 -36.1353 -35.975 -35.9415 -35.9083 -35.8741 -35.9451 -35.7028 -35.525 -35.3514 -35.178 -35.1281 -34.762 -34.4861 -34.2102 -33.9189 -33.7003 -33.3084 -32.9234 -32.565 -32.2085 -31.8932 -31.4343 -31.0202 -30.6085 -30.1463 -29.7363 -29.2797 -28.8007 -28.3468 -27.897 -27.4283 -26.9511 -26.4788 -25.9988 -25.5075 -25.0167 -24.5113 -23.9665 -23.4299 -22.9094 -22.339 -21.7574 -21.1624 -20.5241 -19.8774 -19.2363 -18.557 -17.7973 -17.0376 -16.3351 -15.5475 -14.7477 -13.9378 -13.056 -12.1745 -11.3125 -10.3354 -9.27879 -8.22245 -7.2315 -6.17411 -4.98368 -3.76306 -2.45851 -1.15487 0.0843981 1.60083 3.21848 4.83504 6.37851 7.86479 9.58406 11.4587 13.4268 15.3914 17.2122 19.4225 21.7618 24.0961 26.2942 28.193 30.1666 32.4954 35.0281 37.5452 39.8859 42.2781 44.7391 47.1735 48.916 50.3128 50.3733 50.4101 50.4465 50.4824 50.5188 50.9804 51.6533 52.7818 53.8532 54.458 53.2047 51.4387 49.5787 47.3936 44.4224 42.2724 40.3736 38.5536 36.7619 35.1489 32.2364 29.3882 26.535 23.7106 21.1622 20.6911 20.1817 19.6721 19.1656 18.6695 15.7681 12.4186 9.06646 5.71178 1.8836 -1.89621 -6.06904 -9.60854 -12.8644 -16.3146 -19.4297 -22.2793 -25.133 -27.8844 -30.7154 -30.9374 -31.1596 -31.3817 -31.6008 -31.7807 -34.0282 -36.4995 -39.0506 -41.6106 -44.5949 -45.7494 -48.0687 -50.2406 -51.8471 -54.0742 -55.7452 -56.9286 -58.1176 -59.5226 -60.596 -61.4135 -62.1911 -63.1338 -64.0907 -65.0546 -65.007 -64.993 -64.979 -64.965 -64.9509 -64.6419 -64.3527 -64.0832 -63.4885 -63.5233 -62.3398 -62.611 -61.0884 -57.8112 -55.9393 -54.7683 -53.6073 -52.6409 -50.8359 -49.0801 -48.641 -48.1139 -47.3162 -46.6356 -46.0813 -44.7583 -43.817 -42.9909 -42.3416 -41.2591 -40.8176 -40.4275 -39.9485 -39.4449 -38.9978 -37.9066 -36.7492 -35.5221 -34.302 -33.2636 -32.7284 -32.2352 -31.7584 -31.5828 -31.5078 -30.9663 -30.4739 -30.1492 -30.0429 -30.0442 -29.7544 -29.4104 -29.0192 -28.6172 -28.1915 -26.9853 -26.7675 -26.8057 -26.9331 -28.1905 -28.3803 -28.549 -28.7181 -28.8878 -29.0214 -29.0109 -28.9029 -28.7897 -28.6766 -28.5646 -28.4541 -28.3249 -28.1858 -28.0468 -27.9165 -27.8884 -27.8595 -27.8307 -27.8018 -27.7729 -27.3792 -26.9865 -26.5941 -26.2018 -25.808 -25.4506 -25.3669 -25.2845 -25.2102 -25.6323 -26.7629 -27.6823 -28.1725 -27.9393 -27.5666 -27.678 -27.3905 -26.8769 -26.4 -25.5351 -24.5715 -23.8097 -23.0942 -22.3788 -21.7096 -21.003 -20.3968 -19.7906 -19.1889 -18.6256 -18.0832 -17.5707 -17.0437 -16.5167 -15.9973 -15.9029 -15.8174 -15.732 -15.6465 -15.5629 -15.1242 -14.6856 -14.2471 -13.8203 -13.3924 -12.8708 -12.3341 -11.7977 -11.2613 -10.7659 -10.2087 -9.68732 -9.16601 -8.63786 -8.13355 -7.64857 -7.17288 -6.70625 -6.26389 -5.9202 -5.42723 -4.99907 -4.60926 -4.24669 -3.91333 -3.56593 -3.23967 -2.94206 -2.71027 -2.51857 -2.16293 -1.84784 -1.61228 -1.39747 -1.19664 -0.918023 -0.653555 -0.441465 -0.327329 -0.237115 0.125223 0.461791 0.661601 0.757705 0.839118 1.17167 1.47288 1.62938 1.63248 1.57425 1.97353 2.21927 2.33236 2.39098 2.32145 2.62282 2.7203 2.78874 2.85328 2.68365 2.9472 2.97374 3.00343 3.03442 2.97415 3.05738 3.06163 3.06361 3.06259 3.04855 3.05733 3.05484 3.05234 3.04985 3.04737 3.04068 3.03397 3.03049 3.02795 3.01861 3.02839 3.01766 3.00308 2.98693 2.9815 3.00472 2.99376 2.98327 2.97149 2.88266 2.9958 3.01935 3.01376 2.98015 2.91001 2.99911 3.05884 3.0534 2.93239 2.78012 2.94217 3.04576 3.03057 2.94697 2.8172 2.95 3.00439 2.99168 2.90806 2.71331 2.91156 2.9628 2.95029 2.89911 2.7259 2.88725 2.88636 2.86724 2.84803 2.61905 2.80293 2.7779 2.75277 2.72716 2.56479 2.66684 2.63769 2.60844 2.5791 2.43619 2.51013 2.4759 2.44159 2.40718 2.31972 2.33193 2.29846 2.265 2.23157 2.19807 2.19005 2.18202 2.17399 2.16597 2.15885 2.15139 2.14316 2.13493 2.1267 2.11854 2.09024 2.06193 2.03363 2.00532 1.97899 1.95438 1.92212 1.88986 1.85757 1.79325 1.80668 1.77808 1.74946 1.72161 1.67378 1.68781 1.66357 1.63745 1.61131 1.48575 1.57929 1.55733 1.53536 1.50884 1.42399 1.47905 1.48468 1.46784 1.40003 1.25094 1.36618 1.4216 1.40855 1.3397 1.23697 1.31185 1.371 1.35954 1.21769 1.05915 1.18493 1.31069 1.29915 1.18437 1.06944 1.1498 1.21704 1.19597 1.06843 0.913293 1.0342 1.10081 1.08092 1.01769 0.912551 0.979456 0.993003 0.975855 0.930164 0.793511 0.903357 0.904321 0.889893 0.876044 0.788397 0.844115 0.831041 0.816757 0.80247 0.706471 0.768734 0.753499 0.738259 0.723179 0.674736 0.689985 0.674381 0.658767 0.643144 0.599525 0.610022 0.593942 0.57785 0.561746 0.541221 0.539242 0.533988 0.528856 0.523723 0.518403 0.508134 0.497855 0.487565 0.477266 0.465847 0.459368 0.450439 0.4415 0.432553 0.423677 0.417974 0.412267 0.406557 0.400844 0.397164 0.385509 0.373892 0.362255 0.350597 0.336569 0.332408 0.32298 0.313411 0.303615 0.295034 0.288363 0.279467 0.27054 0.261583 0.240793 0.246942 0.237858 0.228741 0.21951 0.204021 0.205995 0.197178 0.188177 0.17775 0.146614 0.163477 0.157702 0.148856 0.137453 0.11414 0.122963 0.118498 0.109885 0.0925339 0.0550073 0.0775559 0.0806341 0.0729292 0.0572715 0.0296204 0.0458541 0.0502637 0.0441671 0.0213435 -0.0176002 0.00927387 0.0215312 0.0160536 -0.00400214 -0.0344169 -0.0170402 -0.00805415 -0.0137658 -0.039721 -0.0756873 -0.0511656 -0.0407208 -0.0479011 -0.0647353 -0.0942768 -0.0771003 -0.0776424 -0.0848779 -0.094953 -0.128508 -0.110771 -0.11834 -0.126251 -0.134182 -0.158271 -0.153599 -0.162182 -0.170785 -0.179086 -0.19717 -0.197432 -0.205559 -0.21398 -0.222421 -0.233643 -0.236124 -0.241038 -0.245961 -0.250892 -0.255741 -0.256768 -0.257798 -0.258831 -0.259867 -0.265079 -0.263934 -0.267217 -0.270416 -0.273644 -0.287697 -0.281991 -0.285879 -0.289796 -0.293707 -0.324592 -0.302993 -0.305947 -0.309419 -0.31292 -0.336114 -0.319802 -0.323154 -0.326535 -0.33537 -0.377306 -0.346412 -0.339975 -0.344522 -0.356836 -0.379897 -0.369166 -0.365212 -0.37077 -0.400715 -0.442453 -0.41822 -0.397784 -0.403668 -0.419996 -0.43797 -0.430775 -0.425425 -0.430024 -0.459388 -0.493933 -0.467657 -0.447546 -0.451996 -0.465406 -0.481307 -0.478649 -0.477936 -0.482647 -0.506798 -0.538507 -0.517847 -0.505048 -0.508952 -0.515612 -0.523669 -0.523197 -0.524377 -0.527734 -0.545136 -0.57274 -0.553233 -0.545058 -0.549745 -0.556277 -0.564186 -0.569005 -0.575348 -0.582648 -0.594952 -0.624017 -0.609754 -0.614775 -0.622414 -0.629936 -0.637673 -0.646221 -0.652945 -0.659688 -0.666451 -0.687489 -0.680541 -0.687977 -0.695432 -0.702968 -0.711194 -0.722265 -0.730958 -0.739632 -0.748326 -0.761986 -0.766044 -0.774063 -0.782104 -0.790165 -0.79831 -0.800406 -0.802196 -0.803986 -0.805793 -0.807608 -0.812917 -0.818239 -0.823573 -0.828921 -0.832448 -0.842435 -0.850842 -0.85927 -0.867722 -0.880938 -0.885955 -0.89672 -0.907508 -0.917636 -0.923386 -0.93941 -0.950608 -0.961831 -0.97308 -0.987219 -0.994736 -1.00572 -1.01673 -1.02776 -1.03715 -1.04895 -1.05931 -1.06968 -1.08008 -1.08962 -1.09147 -1.09333 -1.09518 -1.09703 -1.09843 -1.11126 -1.1256 -1.14027 -1.15496 -1.17038 -1.18567 -1.2022 -1.21877 -1.23417 -1.24178 -1.2647 -1.2832 -1.30355 -1.32393 -1.34503 -1.36982 -1.39674 -1.42369 -1.44628 -1.45495 -1.49954 -1.53224 -1.5754 -1.61861 -1.65529 -1.73125 -1.78654 -1.84188 -1.87945 -1.87202 -1.98216 -2.07396 -2.22017 -2.36009 -2.46731 -3.02483 -3.1743 -3.19065 -3.03592 -2.49817 -2.30396 -2.06085 -1.81678 -1.57305 -1.43601 -1.93572 -1.9033 -1.87039 -1.83697 -1.41217 -1.3647 -1.27576 -1.22817 -1.18107 -1.1419 -1.12047 -1.09912 -1.07785 -1.05665 -1.01751 -1.06459 -1.07426 -1.11722 -1.16032 -1.13128 -1.56428 -1.5966 -1.6293 -1.63762 -1.06407 -0.929435 -0.73019 -0.443271 -0.443163 -0.463989 -1.4395 -1.97125 -1.89739 -1.46767 -0.562876 -0.29216 0.207788 0.365531 0.494924 0.598408 0.629775 0.626634 0.623499 0.620369 0.624983 0.638121 