# vtk DataFile Version 2.0
track0
ASCII
DATASET POLYDATA
POINTS 15780 float
-1.001 -0.05 0.0011
-1.0008 -0.05 0.0011
-1.0006 -0.05 0.0011
-1.0004 -0.05 0.0011
-1.0002 -0.05 0.0011
-1 -0.05 0.0011
-0.9875 -0.05 0.0011
-0.975 -0.05 0.0011
-0.9625 -0.05 0.0011
-0.95 -0.05 0.0011
-0.9375 -0.05 0.00109999
-0.925 -0.05 0.00109999
-0.9125 -0.05 0.00109999
-0.9 -0.05 0.00109999
-0.8875 -0.05 0.00109999
-0.875 -0.05 0.00109999
-0.8625 -0.05 0.00109999
-0.85 -0.05 0.00109999
-0.8375 -0.05 0.00109998
-0.825 -0.0500001 0.00109998
-0.8125 -0.0500001 0.00109998
-0.8 -0.0500001 0.00109998
-0.7875 -0.0500001 0.00109998
-0.775 -0.0500001 0.00109998
-0.7625 -0.0500001 0.00109998
-0.75 -0.0500001 0.00109998
-0.7375 -0.0500001 0.00109997
-0.725 -0.0500001 0.00109997
-0.7125 -0.0500001 0.00109997
-0.7 -0.0500001 0.00109997
-0.6875 -0.0500001 0.00109997
-0.675 -0.0500001 0.00109997
-0.6625 -0.0500001 0.00109997
-0.65 -0.0500001 0.00109996
-0.6375 -0.0500001 0.00109996
-0.625 -0.0500001 0.00109996
-0.6125 -0.0500001 0.00109996
-0.6 -0.0500001 0.00109996
-0.5875 -0.0500001 0.00109996
-0.575 -0.0500001 0.00109996
-0.5625 -0.0500001 0.00109996
-0.55 -0.0500001 0.00109995
-0.5375 -0.0500001 0.00109995
-0.525 -0.0500001 0.00109995
-0.5125 -0.0500001 0.00109995
-0.5 -0.0500001 0.00109995
-0.4875 -0.0500001 0.00109995
-0.475 -0.0500001 0.00109995
-0.4625 -0.0500001 0.00109994
-0.45 -0.0500002 0.00109994
-0.4375 -0.0500002 0.00109994
-0.425 -0.0500002 0.00109994
-0.4125 -0.0500002 0.00109994
-0.4 -0.0500002 0.00109994
-0.3875 -0.0500002 0.00109994
-0.375 -0.0500002 0.00109994
-0.3625 -0.0500002 0.00109993
-0.35 -0.0500002 0.00109993
-0.3375 -0.0500002 0.00109993
-0.325 -0.0500002 0.00109993
-0.3125 -0.0500002 0.00109993
-0.3 -0.0500002 0.00109993
-0.2875 -0.0500002 0.00109993
-0.275 -0.0500002 0.00109993
-0.2625 -0.0500002 0.00109992
-0.25 -0.0500002 0.00109992
-0.2375 -0.0500002 0.00109992
-0.225 -0.0500002 0.00109992
-0.2125 -0.0500002 0.00109992
-0.2 -0.0500002 0.00109992
-0.1875 -0.0500002 0.00109992
-0.175 -0.0500002 0.00109992
-0.1625 -0.0500002 0.00109991
-0.15 -0.0500002 0.00109991
-0.1375 -0.0500002 0.00109991
-0.125 -0.0500002 0.00109991
-0.1125 -0.0500002 0.00109991
-0.1 -0.0500002 0.00109991
-0.0875 -0.0500002 0.00109991
-0.075 -0.0500002 0.00109991
-0.0625 -0.0500002 0.00109991
-0.05 -0.0500003 0.00109991
-0.0375 -0.0500003 0.0010999
-0.025 -0.0500003 0.0010999
-0.0125 -0.0500003 0.0010999
2.10607e-13 -0.0500003 0.0010999
0.0125 -0.0500003 0.0010999
0.025 -0.0500003 0.0010999
0.0375 -0.0500003 0.0010999
0.05 -0.0500003 0.0010999
0.0625 -0.0500003 0.0010999
0.075 -0.0500003 0.0010999
0.0875 -0.0500003 0.0010999
0.1 -0.0500003 0.00109989
0.1125 -0.0500003 0.00109989
0.125 -0.0500003 0.00109989
0.1375 -0.0500003 0.00109989
0.15 -0.0500003 0.00109989
0.1625 -0.0500003 0.00109989
0.175 -0.0500003 0.00109989
0.1875 -0.0500003 0.00109989
0.2 -0.0500003 0.00109989
0.2125 -0.0500003 0.00109989
0.225 -0.0500003 0.00109989
0.2375 -0.0500003 0.00109989
0.25 -0.0500003 0.00109989
0.2625 -0.0500003 0.00109988
0.275 -0.0500003 0.00109988
0.2875 -0.0500003 0.00109988
0.3 -0.0500003 0.00109988
0.3125 -0.0500003 0.00109988
0.325 -0.0500003 0.00109988
0.3375 -0.0500003 0.00109988
0.35 -0.0500003 0.00109988
0.3625 -0.0500003 0.00109988
0.375 -0.0500003 0.00109988
0.3875 -0.0500003 0.00109988
0.4 -0.0500004 0.00109988
0.4125 -0.0500004 0.00109988
0.425 -0.0500004 0.00109988
0.4375 -0.0500004 0.00109988
0.45 -0.0500004 0.00109988
0.4625 -0.0500004 0.00109988
0.475 -0.0500004 0.00109988
0.4875 -0.0500004 0.00109988
0.5 -0.0500004 0.00109988
0.5125 -0.0500004 0.00109988
0.525 -0.0500004 0.00109988
0.5375 -0.0500004 0.00109988
0.55 -0.0500004 0.00109988
0.5625 -0.0500004 0.00109988
0.575 -0.0500004 0.00109987
0.5875 -0.0500004 0.00109987
0.6 -0.0500004 0.00109987
0.6125 -0.0500004 0.00109987
0.625 -0.0500004 0.00109987
0.6375 -0.0500004 0.00109987
0.65 -0.0500004 0.00109987
0.6625 -0.0500004 0.00109987
0.675 -0.0500004 0.00109987
0.6875 -0.0500004 0.00109987
0.7 -0.0500004 0.00109987
0.7125 -0.0500004 0.00109987
0.725 -0.0500004 0.00109987
0.7375 -0.0500004 0.00109987
0.75 -0.0500004 0.00109987
0.7625 -0.0500004 0.00109987
0.775 -0.0500004 0.00109987
0.7875 -0.0500004 0.00109987
0.8 -0.0500004 0.00109987
0.8125 -0.0500004 0.00109987
0.825 -0.0500004 0.00109987
0.8375 -0.0500004 0.00109987
0.85 -0.0500004 0.00109987
0.8625 -0.0500004 0.00109987
0.875 -0.0500004 0.00109987
0.8875 -0.0500004 0.00109987
0.9 -0.0500004 0.00109987
0.9125 -0.0500005 0.00109988
0.925 -0.0500005 0.00109988
0.9375 -0.0500005 0.00109988
0.95 -0.0500005 0.00109988
0.9625 -0.0500005 0.00109988
0.975 -0.0500005 0.00109988
0.9875 -0.0500005 0.00109988
1 -0.0500005 0.00109988
1.0125 -0.0500005 0.00109988
1.025 -0.0500005 0.00109988
1.0375 -0.0500005 0.00109988
1.05 -0.0500005 0.00109988
1.0625 -0.0500005 0.00109988
1.075 -0.0500005 0.00109988
1.0875 -0.0500005 0.00109988
1.1 -0.0500005 0.00109988
1.1125 -0.0500005 0.00109988
1.125 -0.0500005 0.00109988
1.1375 -0.0500005 0.00109988
1.15 -0.0500005 0.00109988
1.1625 -0.0500005 0.00109988
1.175 -0.0500005 0.00109988
1.1875 -0.0500005 0.00109988
1.2 -0.0500005 0.00109988
1.2125 -0.0500005 0.00109988
1.225 -0.0500005 0.00109988
1.2375 -0.0500005 0.00109989
1.25 -0.0500005 0.00109989
1.2625 -0.0500005 0.00109989
1.275 -0.0500005 0.00109989
1.2875 -0.0500005 0.00109989
1.3 -0.0500005 0.00109989
1.3125 -0.0500005 0.00109989
1.325 -0.0500005 0.00109989
1.3375 -0.0500005 0.00109989
1.35 -0.0500005 0.00109989
1.3625 -0.0500005 0.00109989
1.375 -0.0500005 0.00109989
1.3875 -0.0500005 0.00109989
1.4 -0.0500005 0.00109989
1.4125 -0.0500005 0.00109989
1.425 -0.0500005 0.00109989
1.4375 -0.0500005 0.0010999
1.45 -0.0500005 0.0010999
1.4625 -0.0500005 0.0010999
1.475 -0.0500005 0.0010999
1.4875 -0.0500005 0.0010999
1.5 -0.0500006 0.0010999
1.5125 -0.0500006 0.0010999
1.525 -0.0500006 0.0010999
1.5375 -0.0500006 0.0010999
1.55 -0.0500006 0.0010999
1.5625 -0.0500006 0.0010999
1.575 -0.0500006 0.0010999
1.5875 -0.0500006 0.0010999
1.6 -0.0500006 0.0010999
1.6125 -0.0500006 0.00109991
1.625 -0.0500006 0.00109991
1.6375 -0.0500006 0.00109991
1.65 -0.0500006 0.00109991
1.6625 -0.0500006 0.00109991
1.675 -0.0500006 0.00109991
1.6875 -0.0500006 0.00109991
1.7 -0.0500006 0.00109991
1.7125 -0.0500006 0.00109991
1.725 -0.0500006 0.00109991
1.7375 -0.0500006 0.00109991
1.75 -0.0500006 0.00109991
1.7625 -0.0500006 0.00109992
1.775 -0.0500006 0.00109992
1.7875 -0.0500006 0.00109992
1.8 -0.0500006 0.00109992
1.8125 -0.0500006 0.00109992
1.825 -0.0500006 0.00109992
1.8375 -0.0500006 0.00109992
1.85 -0.0500006 0.00109992
1.8625 -0.0500006 0.00109992
1.875 -0.0500006 0.00109992
1.8875 -0.0500006 0.00109992
1.9 -0.0500006 0.00109992
1.9125 -0.0500006 0.00109993
1.925 -0.0500006 0.00109993
1.9375 -0.0500006 0.00109993
1.95 -0.0500006 0.00109993
1.9625 -0.0500006 0.00109993
1.975 -0.0500006 0.00109993
1.9875 -0.0500006 0.00109993
2 -0.0500006 0.00109993
2.0125 -0.0500006 0.00109993
2.025 -0.0500006 0.00109993
2.0375 -0.0500006 0.00109993
2.05 -0.0500006 0.00109993
2.0625 -0.0500006 0.00109994
2.075 -0.0500006 0.00109994
2.0875 -0.0500006 0.00109994
2.1 -0.0500006 0.00109994
2.1125 -0.0500006 0.00109994
2.125 -0.0500006 0.00109994
2.1375 -0.0500006 0.00109994
2.15 -0.0500006 0.00109994
2.1625 -0.0500006 0.00109994
2.175 -0.0500007 0.00109994
2.1875 -0.0500007 0.00109994
2.2 -0.0500007 0.00109994
2.2125 -0.0500007 0.00109994
2.225 -0.0500007 0.00109995
2.2375 -0.0500007 0.00109995
2.25 -0.0500007 0.00109995
2.2625 -0.0500007 0.00109995
2.275 -0.0500007 0.00109995
2.2875 -0.0500007 0.00109995
2.3 -0.0500007 0.00109995
2.3125 -0.0500007 0.00109995
2.325 -0.0500007 0.00109995
2.3375 -0.0500007 0.00109995
2.35 -0.0500007 0.00109995
2.3625 -0.0500007 0.00109995
2.375 -0.0500007 0.00109995
2.3875 -0.0500007 0.00109996
2.4 -0.0500007 0.00109996
2.4125 -0.0500007 0.00109996
2.425 -0.0500007 0.00109996
2.4375 -0.0500007 0.00109996
2.45 -0.0500007 0.00109996
2.4625 -0.0500007 0.00109996
2.475 -0.0500007 0.00109996
2.4875 -0.0500007 0.00109996
2.5 -0.0500007 0.00109996
2.5125 -0.0500007 0.00109996
2.525 -0.0500007 0.00109996
2.5375 -0.0500007 0.00109996
2.55 -0.0500007 0.00109996
2.5625 -0.0500007 0.00109997
2.575 -0.0500007 0.00109997
2.5875 -0.0500007 0.00109997
2.6 -0.0500007 0.00109997
2.6125 -0.0500007 0.00109997
2.625 -0.0500007 0.00109997
2.6375 -0.0500007 0.00109997
2.65 -0.0500007 0.00109997
2.6625 -0.0500007 0.00109997
2.675 -0.0500007 0.00109997
2.6875 -0.0500007 0.00109997
2.7 -0.0500007 0.00109997
2.7125 -0.0500007 0.00109997
2.725 -0.0500007 0.00109997
2.7375 -0.0500007 0.00109997
2.75 -0.0500007 0.00109997
2.7625 -0.0500007 0.00109998
2.775 -0.0500007 0.00109998
2.7875 -0.0500007 0.00109998
2.8 -0.0500007 0.00109998
2.8125 -0.0500007 0.00109998
2.825 -0.0500007 0.00109998
2.8375 -0.0500007 0.00109998
2.85 -0.0500007 0.00109998
2.8625 -0.0500008 0.00109998
2.875 -0.0500008 0.00109998
2.8875 -0.0500008 0.00109998
2.9 -0.0500008 0.00109998
2.9125 -0.0500008 0.00109998
2.925 -0.0500008 0.00109998
2.9375 -0.0500008 0.00109998
2.95 -0.0500008 0.00109998
2.9625 -0.0500008 0.00109998
2.975 -0.0500008 0.00109998
2.9875 -0.0500008 0.00109998
3 -0.0500008 0.00109998
3.0125 -0.0500008 0.00109999
3.025 -0.0500008 0.00109999
3.0375 -0.0500008 0.00109999
3.05 -0.0500008 0.00109999
3.0625 -0.0500008 0.00109999
3.075 -0.0500008 0.00109999
3.0875 -0.0500008 0.00109999
3.1 -0.0500008 0.00109999
3.1125 -0.0500008 0.00109999
3.125 -0.0500008 0.00109999
3.1375 -0.0500008 0.00109999
3.15 -0.0500008 0.00109999
3.1625 -0.0500008 0.00109999
3.175 -0.0500008 0.00109999
3.1875 -0.0500008 0.00109999
3.2 -0.0500008 0.00109999
3.2125 -0.0500008 0.00109999
3.225 -0.0500008 0.00109999
3.2375 -0.0500008 0.00109999
3.25 -0.0500008 0.00109999
3.2625 -0.0500008 0.00109999
3.275 -0.0500008 0.00109999
3.2875 -0.0500008 0.00109999
3.3 -0.0500008 0.00109999
3.3125 -0.0500008 0.00109999
3.325 -0.0500008 0.00109999
3.3375 -0.0500008 0.00109999
3.35 -0.0500008 0.0011
3.3625 -0.0500008 0.0011
[...]
POINT_DATA 15780
 FIELD attributes 2
p 1 15780 float
-0.0310979 -0.0311139 -0.0311299 -0.031146 -0.031162 -0.0311781 -0.0321095 -0.0330333 -0.033957 -0.0348808 -0.0359012 -0.0369651 -0.0380314 -0.0390978 -0.0401641 -0.0411838 -0.0421673 -0.0431321 -0.0440969 -0.0450617 -0.0459748 -0.0468726 -0.0477752 -0.0486778 -0.0495803 -0.050477 -0.0513776 -0.0522791 -0.0531806 -0.0540822 -0.054983 -0.0558905 -0.0567984 -0.0577064 -0.0586144 -0.0595218 -0.0604214 -0.0613189 -0.0622164 -0.0631139 -0.0640085 -0.0648875 -0.0657647 -0.0666419 -0.067519 -0.0683941 -0.0692514 -0.0701068 -0.0709621 -0.0718174 -0.0726707 -0.0735054 -0.0743374 -0.0751695 -0.0760015 -0.0768312 -0.0776395 -0.0784446 -0.0792498 -0.080055 -0.0808573 -0.0816354 -0.0824097 -0.0831839 -0.0839582 -0.0847289 -0.085473 -0.086213 -0.0869529 -0.0876929 -0.0884289 -0.0891363 -0.0898388 -0.0905414 -0.0912439 -0.0919419 -0.0926092 -0.0932714 -0.0939335 -0.0945957 -0.0952529 -0.0958773 -0.0964962 -0.097115 -0.0977338 -0.0983471 -0.0989261 -0.0994993 -0.100073 -0.100646 -0.101213 -0.101746 -0.102272 -0.102798 -0.103324 -0.103844 -0.104329 -0.104806 -0.105284 -0.105762 -0.106233 -0.106667 -0.107094 -0.107521 -0.107947 -0.108367 -0.108747 -0.10912 -0.109493 -0.109866 -0.110231 -0.110556 -0.110873 -0.11119 -0.111507 -0.111816 -0.112084 -0.112344 -0.112605 -0.112865 -0.113117 -0.113328 -0.11353 -0.113733 -0.113936 -0.11413 -0.114283 -0.114427 -0.114571 -0.114715 -0.114851 -0.114943 -0.115029 -0.115114 -0.1152 -0.115277 -0.115314 -0.115342 -0.115371 -0.1154 -0.115421 -0.115403 -0.115378 -0.115352 -0.115327 -0.115294 -0.115224 -0.115146 -0.115068 -0.11499 -0.114905 -0.114783 -0.114653 -0.114524 -0.114394 -0.114257 -0.114083 -0.113902 -0.113721 -0.11354 -0.113351 -0.113128 -0.112897 -0.112667 -0.112436 -0.112199 -0.111928 -0.111652 -0.111375 -0.111098 -0.110814 -0.1105 -0.110179 -0.109859 -0.109538 -0.109211 -0.108854 -0.108492 -0.108129 -0.107767 -0.107398 -0.107001 -0.106599 -0.106198 -0.105796 -0.105388 -0.104955 -0.104516 -0.104078 -0.10364 -0.103196 -0.10273 -0.102259 -0.101789 -0.101318 -0.100843 -0.100349 -0.0998511 -0.099353 -0.0988549 -0.0983527 -0.0978339 -0.0973114 -0.096789 -0.0962666 -0.0957403 -0.0951993 -0.094655 -0.0941106 -0.0935662 -0.0930182 -0.0924572 -0.0918934 -0.0913297 -0.0907659 -0.0901989 -0.0896213 -0.0890411 -0.0884609 -0.0878807 -0.0872976 -0.0867062 -0.0861128 -0.0855194 -0.084926 -0.0843303 -0.0837285 -0.0831249 -0.0825214 -0.0819179 -0.0813123 -0.0807027 -0.0800918 -0.079481 -0.0788702 -0.0782579 -0.0776435 -0.0770281 -0.0764127 -0.0757973 -0.0751806 -0.0745637 -0.0739462 -0.0733288 -0.0727114 -0.0720933 -0.0714765 -0.0708595 -0.0702425 -0.0696256 -0.069008 -0.0683935 -0.0677791 -0.0671648 -0.0665505 -0.0659361 -0.065326 -0.0647163 -0.0641066 -0.063497 -0.0628873 -0.0622834 -0.0616802 -0.061077 -0.0604738 -0.0598711 -0.0592752 -0.0586802 -0.0580851 -0.0574901 -0.0568958 -0.0563093 -0.055724 -0.0551387 -0.0545535 -0.0539692 -0.0533938 -0.0528197 -0.0522455 -0.0516714 -0.0510984 -0.050535 -0.0499733 -0.0494115 -0.0488497 -0.0482894 -0.0477394 -0.047191 -0.0466426 -0.0460943 -0.0455474 -0.0450115 -0.0444774 -0.0439434 -0.0434094 -0.0428771 -0.0423562 -0.0418373 -0.0413183 -0.0407994 -0.0402822 -0.0397769 -0.0392737 -0.0387705 -0.0382673 -0.0377661 -0.037277 -0.03679 -0.036303 -0.0358161 -0.0353311 -0.0348585 -0.0343881 -0.0339178 -0.0334474 -0.0329793 -0.0325235 -0.0320701 -0.0316166 -0.0311631 -0.0307119 -0.0302731 -0.0298366 -0.0294002 -0.0289638 -0.0285297 -0.028108 -0.0276887 -0.0272694 -0.0268501 -0.0264331 -0.0260284 -0.0256262 -0.025224 -0.0248217 -0.0244219 -0.0240344 -0.0236493 -0.0232642 -0.0228791 -0.0224963 -0.0221259 -0.0217581 -0.0213902 -0.0210223 -0.0206569 -0.0203036 -0.0199529 -0.0196022 -0.0192514 -0.018903 -0.0185664 -0.0182324 -0.0178983 -0.0175643 -0.0172328 -0.0169124 -0.0165945 -0.0162766 -0.0159587 -0.0156433 -0.0153387 -0.0150364 -0.0147341 -0.0144318 -0.0141319 -0.0138426 -0.0135555 -0.0132685 -0.0129814 -0.0126969 -0.0124226 -0.0121505 -0.0118784 -0.0116064 -0.0113365 -0.0110769 -0.0108194 -0.0105619 -0.0103045 -0.0100493 -0.00980399 -0.00956083 -0.00931767 -0.00907452 -0.00883356 -0.00860209 -0.00837265 -0.00814322 -0.00791379 -0.00768644 -0.00746808 -0.00725183 -0.00703559 -0.00681934 -0.00660517 -0.00639964 -0.00619615 -0.00599265 -0.00578915 -0.00558765 -0.00539443 -0.00520332 -0.0050122 -0.00482109 -0.00463208 -0.00445104 -0.0042721 -0.00409317 -0.00391424 -0.00373735 -0.00356812 -0.00340094 -0.00323376 -0.00306658 -0.00290144 -0.0027434 -0.00258722 -0.00243105 -0.00227487 -0.00212073 -0.00197322 -0.00182724 -0.00168126 -0.00153528 -0.00139107 -0.00125312 -0.00111676 -0.000980401 -0.000844043 -0.000709459 -0.000580785 -0.00045372 -0.000326655 -0.00019959 -7.41698e-05 4.54982e-05 0.000163551 0.000281604 0.000399656 0.000516091 0.000627077 0.000736478 0.000845879 0.00095528 0.00106306 0.00116579 0.00126698 0.00136817 0.00146936 0.00156897 0.00166386 0.00175729 0.00185072 0.00194416 0.00203608 0.00212361 0.00220972 0.00229583 0.00238193 0.00246656 0.00254706 0.00262624 0.00270541 0.00278459 0.00286236 0.0029363 0.00300892 0.00308155 0.00315417 0.0032254 0.0032931 0.00335955 0.003426 0.00349245 0.00355761 0.00361946 0.0036801 0.00374073 0.00380137 0.00386073 0.00391705 0.00397223 0.0040274 0.00408258 0.00413655 0.00418775 0.0042378 0.00428786 0.00433791 0.00438677 0.00443308 0.00447831 0.00452354 0.00456877 0.00461287 0.00465464 0.00469535 0.00473605 0.00477676 0.00481635 0.0048538 0.00489027 0.00492673 0.0049632 0.00499862 0.00503211 0.00506462 0.00509713 0.00512964 0.0051611 0.00519084 0.00521965 0.00524846 0.00527727 0.00530512 0.00533139 0.00535676 0.00538213 0.00540749 0.00543189 0.0054549 0.00547705 0.00549921 0.00552137 0.00554263 0.00556266 0.00558185 0.00560103 0.00562022 0.0056385 0.00565572 0.00567216 0.00568859 0.00570503 0.00572062 0.0057353 0.00574919 0.00576308 0.00577697 0.00579003 0.0058023 0.00581384 0.00582538 0.00583692 0.00584769 0.00585779 0.00586717 0.00587655 0.00588593 0.00589453 0.0059026 0.00590999 0.00591738 0.00592477 0.00593145 0.0059377 0.00594327 0.00594884 0.00595442 0.00595928 0.00596382 0.00596774 0.00597165 0.00597557 0.00597881 0.00598186 0.00598427 0.00598668 0.00598909 0.00599083 0.00599246 0.0059935 0.00599455 0.00599559 0.005996 0.0059964 0.0059962 0.005996 0.00599581 0.00599498 0.00599422 0.00599291 0.0059916 0.0059903 0.00598841 0.00598667 0.00598438 0.00598209 0.0059798 0.00597693 0.00597428 0.00597111 0.00596794 0.00596477 0.00596105 0.00595762 0.00595368 0.00594974 0.0059458 0.00594131 0.00593718 0.00593257 0.00592796 0.00592335 0.00591822 0.00591354 0.00590836 0.00590319 0.00589801 0.00589232 0.00588714 0.00588149 0.00587584 0.0058702 0.00586407 0.0058585 0.00585247 0.00584643 0.0058404 0.00583389 0.005828 0.00582167 0.00581534 0.00580901 0.00580222 0.00579611 0.00578956 0.00578301 0.00577647 0.00576946 0.00576319 0.0057565 0.00574981 0.00574312 0.005736 0.00572966 0.0057229 0.00571615 0.00570939 0.00570221 0.00569586 0.0056891 0.00568235 0.0056756 0.00566843 0.00566215 0.00565547 0.00564879 0.0056421 0.00563501 0.00562886 0.00562232 0.00561578 0.00560923 0.00560229 0.00559633 0.00558999 0.00558364 0.0055773 0.00557056 0.00556486 0.00555878 0.00555269 0.0055466 0.00554013 0.00553474 0.00552896 0.00552319 0.00551742 0.00551127 0.00550624 0.00550083 0.00549541 0.00549 0.00548421 0.00547958 0.00547457 0.00546955 0.00546454 0.00545917 0.00545497 0.00545038 0.00544579 0.0054412 0.00543624 0.00543246 0.00542829 0.00542412 0.00541995 0.00541542 0.00541202 0.00540821 0.0054044 0.00540059 0.00539638 0.00539318 0.00538954 0.0053859 0.00538225 0.00537819 0.00537478 0.00537086 0.00536695 0.00536303 0.00535863 0.00535372 0.005348 0.00534227 0.00533655 0.00533003 0.00532125 0.00531205 0.00530284 0.00529363 0.00528393 0.0052578 0.00522615 0.0051945 0.00516285 0.00512631 0.00511483 0.00511748 0.00512013 0.00512278 0.0051484 0.005232 0.00530804 0.00538741 0.00545037 0.00549599 0.00548896 0.00548513 0.00548129 0.00547749 0.00547595 0.00550284 0.00553052 0.0055582 0.00557788 0.00559884 0.00561278 0.00563163 0.00565051 0.00566939 0.00568372 0.00574661 0.00581163 0.00587664 0.00594166 0.00599817 0.0060896 0.00616572 0.00624183 0.00631794 0.00632309 0.00630846 0.00628908 0.00626971 0.00625033 0.00624045 0.00603961 0.00581805 0.0055965 0.00537494 0.00504758 0.00456759 0.00407371 0.00357984 0.00308596 0.00262187 0.00235211 0.00207481 0.00179751 0.00152021 0.00127288 0.00117429 0.00106927 0.000964244 0.000859223 0.000773581 0.000667669 0.0005562 0.000444731 0.000333261 0.000255276
-0.0319472 -0.0319663 -0.0319854 -0.0320045 -0.0320236 -0.0320427 -0.0327436 -0.0336213 -0.0344039 -0.0351664 -0.0362246 -0.0372614 -0.0382517 -0.0392542 -0.0403136 -0.0412976 -0.0422588 -0.0432248 -0.0441654 -0.0451006 -0.0460066 -0.0469046 -0.0478107 -0.0487166 -0.0496218 -0.0505268 -0.0514185 -0.0523223 -0.0532309 -0.0541407 -0.0550611 -0.0559662 -0.0568784 -0.0577902 -0.0586997 -0.0596147 -0.0605161 -0.0614144 -0.062314 -0.0632139 -0.06411 -0.0649911 -0.0658711 -0.0667507 -0.0676283 -0.0685042 -0.0693624 -0.070218 -0.0710762 -0.071935 -0.0727915 -0.0736255 -0.0744609 -0.0752958 -0.0761281 -0.0769618 -0.077769 -0.0785744 -0.0793822 -0.0801904 -0.0809971 -0.0817728 -0.08255 -0.0833266 -0.084101 -0.084877 -0.0856178 -0.0863578 -0.0871001 -0.0878428 -0.0885852 -0.0892876 -0.0899928 -0.0906975 -0.0914001 -0.0921055 -0.0927668 -0.093429 -0.0940932 -0.0947578 -0.0954236 -0.0960405 -0.0966616 -0.0972822 -0.097901 -0.0985238 -0.0990928 -0.0996658 -0.100241 -0.100816 -0.101395 -0.101914 -0.102442 -0.102969 -0.103495 -0.10403 -0.104502 -0.104979 -0.105458 -0.105936 -0.106421 -0.106844 -0.107271 -0.107697 -0.108124 -0.108555 -0.108925 -0.109298 -0.109671 -0.110043 -0.110418 -0.110733 -0.11105 -0.111366 -0.111683 -0.112001 -0.112261 -0.112521 -0.11278 -0.11304 -0.113299 -0.113502 -0.113704 -0.113906 -0.114109 -0.114311 -0.114455 -0.114599 -0.114743 -0.114886 -0.115029 -0.115112 -0.115197 -0.115283 -0.115368 -0.115455 -0.11548 -0.115508 -0.115537 -0.115566 -0.115599 -0.115567 -0.115541 -0.115515 -0.115489 -0.11547 -0.115385 -0.115307 -0.115228 -0.115148 -0.115075 -0.114939 -0.114806 -0.114673 -0.114543 -0.114416 -0.114229 -0.114048 -0.113863 -0.113679 -0.113499 -0.113263 -0.113029 -0.112796 -0.112565 -0.112335 -0.112053 -0.111776 -0.111496 -0.111216 -0.110939 -0.110614 -0.11029 -0.109966 -0.109645 -0.109324 -0.108959 -0.108597 -0.108232 -0.107866 -0.107503 -0.107099 -0.106695 -0.106291 -0.10589 -0.105486 -0.105046 -0.104607 -0.104167 -0.103727 -0.103289 -0.102812 -0.102339 -0.101867 -0.101395 -0.100927 -0.100422 -0.0999233 -0.0994221 -0.0989205 -0.0984255 -0.0978964 -0.0973701 -0.0968444 -0.0963215 -0.0958013 -0.0952517 -0.0947069 -0.0941596 -0.0936116 -0.0930686 -0.0925001 -0.091933 -0.0913664 -0.0908023 -0.0902392 -0.0896546 -0.0890741 -0.0884912 -0.0879079 -0.0873285 -0.0867307 -0.0861343 -0.0855383 -0.0849446 -0.0843519 -0.0837442 -0.0831404 -0.0825344 -0.081928 -0.0813252 -0.0807104 -0.0800969 -0.0794838 -0.0788726 -0.0782625 -0.0776434 -0.0770277 -0.0764101 -0.0757921 -0.0751775 -0.0745564 -0.0739366 -0.0733172 -0.0726995 -0.0720828 -0.0714624 -0.0708452 -0.0702263 -0.0696072 -0.068991 -0.0683734 -0.0677571 -0.0671412 -0.0665266 -0.0659131 -0.0653004 -0.0646906 -0.0640794 -0.0634679 -0.062859 -0.0622529 -0.0616481 -0.0610435 -0.0604401 -0.0598377 -0.05924 -0.0586449 -0.0580486 -0.0574521 -0.0568579 -0.0562702 -0.0556836 -0.0550972 -0.0545119 -0.0539274 -0.053351 -0.0527768 -0.0522017 -0.0516264 -0.0510532 -0.0504893 -0.0499265 -0.0493639 -0.0488021 -0.0482411 -0.0476909 -0.0471424 -0.0465934 -0.0460441 -0.0454967 -0.0449608 -0.0444261 -0.0438915 -0.0433574 -0.0428242 -0.0423037 -0.0417847 -0.0412653 -0.0407458 -0.0402277 -0.0397231 -0.0392194 -0.0387158 -0.0382126 -0.0377103 -0.037222 -0.036735 -0.0362478 -0.0357605 -0.0352744 -0.0348028 -0.0343323 -0.0338617 -0.0333914 -0.0329219 -0.0324674 -0.032014 -0.0315604 -0.0311068 -0.0306543 -0.0302169 -0.0297804 -0.029344 -0.0289076 -0.0284721 -0.028052 -0.0276327 -0.0272135 -0.0267942 -0.0263759 -0.0259729 -0.0255708 -0.0251687 -0.0247665 -0.0243653 -0.0239793 -0.0235942 -0.0232092 -0.0228243 -0.0224403 -0.0220713 -0.0217037 -0.021336 -0.0209682 -0.0206016 -0.0202496 -0.0198989 -0.0195484 -0.0191979 -0.0188486 -0.0185132 -0.0181793 -0.0178453 -0.0175114 -0.0171787 -0.0168601 -0.0165424 -0.0162246 -0.0159069 -0.0155902 -0.0152877 -0.0149857 -0.0146837 -0.0143816 -0.0140798 -0.0137933 -0.0135064 -0.0132197 -0.012933 -0.0126461 -0.0123748 -0.0121031 -0.0118314 -0.0115594 -0.0112871 -0.0110301 -0.0107727 -0.0105156 -0.0102586 -0.0100012 -0.00975838 -0.00951568 -0.00927291 -0.0090298 -0.00878688 -0.0085579 -0.00832855 -0.00809961 -0.00787075 -0.00764141 -0.00742572 -0.0072102 -0.00699457 -0.00677845 -0.00656258 -0.00635949 -0.0061561 -0.00595323 -0.00575049 -0.00554745 -0.00535646 -0.00516609 -0.00497561 -0.00478458 -0.0045941 -0.00441495 -0.00423607 -0.0040576 -0.00387921 -0.00370119 -0.00353318 -0.00336624 -0.00319926 -0.00303211 -0.00286578 -0.00270916 -0.00255306 -0.00239705 -0.00224107 -0.00208574 -0.00194004 -0.00179446 -0.00164883 -0.00150297 -0.0013574 -0.00122199 -0.00108576 -0.000949917 -0.000814159 -0.000677638 -0.000551673 -0.000425273 -0.000298771 -0.000171818 -4.45768e-05 7.26942e-05 0.000190662 0.000308189 0.000425619 0.000543786 0.000652604 0.000761457 0.000870397 0.000979729 0.00108908 0.00118979 0.00129092 0.00139169 0.00149239 0.00159345 0.00168646 0.00177942 0.00187245 0.00196582 0.00205913 0.00214478 0.00223082 0.00231654 0.00240219 0.00248816 0.0025669 0.00264561 0.00272439 0.0028035 0.00288254 0.00295471 0.00302727 0.0030995 0.00317166 0.00324414 0.0033102 0.00337621 0.00344229 0.00350869 0.003575 0.00363524 0.00369582 0.00375613 0.00381637 0.00387687 0.00393167 0.0039865 0.00404139 0.00409651 0.00415165 0.00420126 0.00425126 0.00430102 0.00435073 0.00440075 0.00444554 0.00449041 0.00453534 0.00458052 0.00462577 0.00466598 0.00470663 0.00474704 0.0047874 0.00482812 0.00486412 0.00490025 0.00493643 0.00497285 0.00500939 0.00504139 0.00507385 0.00510609 0.00513827 0.00517085 0.00519917 0.00522768 0.00525623 0.005285 0.00531393 0.00533878 0.0053641 0.00538922 0.0054143 0.00543978 0.00546145 0.00548333 0.00550525 0.00552737 0.00554969 0.00556835 0.0055875 0.00560646 0.00562538 0.00564472 0.00566065 0.00567683 0.00569304 0.00570944 0.00572607 0.00573942 0.00575327 0.00576696 0.0057806 0.00579468 0.00580571 0.00581702 0.00582836 0.00583987 0.00585164 0.00586047 0.00586981 0.005879 0.00588816 0.00589777 0.00590463 0.00591181 0.00591902 0.00592638 0.00593405 0.00593906 0.0059446 0.00595001 0.00595538 0.00596123 0.00596461 0.00596834 0.00597209 0.00597598 0.00598021 0.00598205 0.00598443 0.00598669 0.00598892 0.00599165 0.00599214 0.00599301 0.00599391 0.00599492 0.00599631 0.00599552 0.0059953 0.00599496 0.0059946 0.00599475 0.00599287 0.00599141 0.00598997 0.00598864 0.00598773 0.00598486 0.00598255 0.00598014 0.0059777 0.00597578 0.00597205 0.00596873 0.00596544 0.00596225 0.00595947 0.00595495 0.00595099 0.00594693 0.00594286 0.00593929 0.00593413 0.00592939 0.00592468 0.00592005 0.00591585 0.0059101 0.00590491 0.00589964 0.00589435 0.00588958 0.00588337 0.00587762 0.00587188 0.00586622 0.00586101 0.0058544 0.00584835 0.00584224 0.00583611 0.00583051 0.00582361 0.00581719 0.00581078 0.00580443 0.00579857 0.00579143 0.00578487 0.00577825 0.00577161 0.00576552 0.00575826 0.00575149 0.00574473 0.00573803 0.00573182 0.00572447 0.0057177 0.00571089 0.00570405 0.00569778 0.00569045 0.00568364 0.00567683 0.00567006 0.00566382 0.00565654 0.00564985 0.00564311 0.00563637 0.0056302 0.00562307 0.00561648 0.00560989 0.00560333 0.00559732 0.00559037 0.00558402 0.00557764 0.00557125 0.00556544 0.00555877 0.00555264 0.00554652 0.00554043 0.0055349 0.00552852 0.00552274 0.00551695 0.00551115 0.00550594 0.00549994 0.00549451 0.00548909 0.00548367 0.00547885 0.00547324 0.00546822 0.00546322 0.00545821 0.00545381 0.00544864 0.00544409 0.00543954 0.00543495 0.00543102 0.00542625 0.00542209 0.00541801 0.00541394 0.00541048 0.00540611 0.00540252 0.00539889 0.0053951 0.00539212 0.00538795 0.00538436 0.00538112 0.00537798 0.00537541 0.00537108 0.00536827 0.00536527 0.00536149 0.00535921 0.00535388 0.00534863 0.00534564 0.00534318 0.00534074 0.00533169 0.00532996 0.00532704 0.00531909 0.00531805 0.00530373 0.00527916 0.00527465 0.00527487 0.00526413 0.00522123 0.0052328 0.00524317 0.00524844 0.00531655 0.00541 0.00547356 0.00553713 0.00557511 0.0055288 0.00550958 0.00550254 0.0054955 0.005488 0.005492 0.00550954 0.00552771 0.00554587 0.00555758 0.00556884 0.0055699 0.00557095 0.005572 0.00557293 0.00557362 0.00559846 0.00562741 0.00565645 0.00568549 0.00565887 0.00569703 0.00575967 0.00582269 0.00588571 0.0059657 0.00617998 0.006269 0.00635147 0.00642758 0.00632066 0.00635653 0.00633715 0.0063207 0.00631125 0.00625588 0.00620934 0.00598778 0.00576623 0.0055321 0.00503851 0.00469889 0.00420501 0.00371113 0.00321458 0.00259579 0.00241416 0.00213686 0.00185956 0.00158226 0.00124248 0.00122338 0.00111836 0.00101334 0.000908316 0.000751149 0.000715157 0.000603689 0.000492222 0.000380755 0.000206755