# vtk DataFile Version 2.0
track0
ASCII
DATASET POLYDATA
POINTS 15780 float
-1.001 -0.05 0.0011
-1.0008 -0.05 0.0011
-1.0006 -0.05 0.0011
-1.0004 -0.05 0.0011
-1.0002 -0.05 0.0011
-1 -0.05 0.0011
-0.9875 -0.05 0.0011
-0.975 -0.05 0.0011
-0.9625 -0.05 0.0011
-0.95 -0.05 0.0011
-0.9375 -0.05 0.00109999
-0.925 -0.05 0.00109999
-0.9125 -0.05 0.00109999
-0.9 -0.05 0.00109999
-0.8875 -0.05 0.00109999
-0.875 -0.05 0.00109999
-0.8625 -0.05 0.00109999
-0.85 -0.05 0.00109999
-0.8375 -0.05 0.00109998
-0.825 -0.0500001 0.00109998
-0.8125 -0.0500001 0.00109998
-0.8 -0.0500001 0.00109998
-0.7875 -0.0500001 0.00109998
-0.775 -0.0500001 0.00109998
-0.7625 -0.0500001 0.00109998
-0.75 -0.0500001 0.00109998
-0.7375 -0.0500001 0.00109997
-0.725 -0.0500001 0.00109997
-0.7125 -0.0500001 0.00109997
-0.7 -0.0500001 0.00109997
-0.6875 -0.0500001 0.00109997
-0.675 -0.0500001 0.00109997
-0.6625 -0.0500001 0.00109997
-0.65 -0.0500001 0.00109996
-0.6375 -0.0500001 0.00109996
-0.625 -0.0500001 0.00109996
-0.6125 -0.0500001 0.00109996
-0.6 -0.0500001 0.00109996
-0.5875 -0.0500001 0.00109996
-0.575 -0.0500001 0.00109996
-0.5625 -0.0500001 0.00109996
-0.55 -0.0500001 0.00109995
-0.5375 -0.0500001 0.00109995
-0.525 -0.0500001 0.00109995
-0.5125 -0.0500001 0.00109995
-0.5 -0.0500001 0.00109995
-0.4875 -0.0500001 0.00109995
-0.475 -0.0500001 0.00109995
-0.4625 -0.0500001 0.00109994
-0.45 -0.0500002 0.00109994
-0.4375 -0.0500002 0.00109994
-0.425 -0.0500002 0.00109994
-0.4125 -0.0500002 0.00109994
-0.4 -0.0500002 0.00109994
-0.3875 -0.0500002 0.00109994
-0.375 -0.0500002 0.00109994
-0.3625 -0.0500002 0.00109993
-0.35 -0.0500002 0.00109993
-0.3375 -0.0500002 0.00109993
-0.325 -0.0500002 0.00109993
-0.3125 -0.0500002 0.00109993
-0.3 -0.0500002 0.00109993
-0.2875 -0.0500002 0.00109993
-0.275 -0.0500002 0.00109993
-0.2625 -0.0500002 0.00109992
-0.25 -0.0500002 0.00109992
-0.2375 -0.0500002 0.00109992
-0.225 -0.0500002 0.00109992
-0.2125 -0.0500002 0.00109992
-0.2 -0.0500002 0.00109992
-0.1875 -0.0500002 0.00109992
-0.175 -0.0500002 0.00109992
-0.1625 -0.0500002 0.00109991
-0.15 -0.0500002 0.00109991
-0.1375 -0.0500002 0.00109991
-0.125 -0.0500002 0.00109991
-0.1125 -0.0500002 0.00109991
-0.1 -0.0500002 0.00109991
-0.0875 -0.0500002 0.00109991
-0.075 -0.0500002 0.00109991
-0.0625 -0.0500002 0.00109991
-0.05 -0.0500003 0.00109991
-0.0375 -0.0500003 0.0010999
-0.025 -0.0500003 0.0010999
-0.0125 -0.0500003 0.0010999
2.10607e-13 -0.0500003 0.0010999
0.0125 -0.0500003 0.0010999
0.025 -0.0500003 0.0010999
0.0375 -0.0500003 0.0010999
0.05 -0.0500003 0.0010999
0.0625 -0.0500003 0.0010999
0.075 -0.0500003 0.0010999
0.0875 -0.0500003 0.0010999
0.1 -0.0500003 0.00109989
0.1125 -0.0500003 0.00109989
0.125 -0.0500003 0.00109989
0.1375 -0.0500003 0.00109989
0.15 -0.0500003 0.00109989
0.1625 -0.0500003 0.00109989
0.175 -0.0500003 0.00109989
0.1875 -0.0500003 0.00109989
0.2 -0.0500003 0.00109989
0.2125 -0.0500003 0.00109989
0.225 -0.0500003 0.00109989
0.2375 -0.0500003 0.00109989
0.25 -0.0500003 0.00109989
0.2625 -0.0500003 0.00109988
0.275 -0.0500003 0.00109988
0.2875 -0.0500003 0.00109988
0.3 -0.0500003 0.00109988
0.3125 -0.0500003 0.00109988
0.325 -0.0500003 0.00109988
0.3375 -0.0500003 0.00109988
0.35 -0.0500003 0.00109988
0.3625 -0.0500003 0.00109988
0.375 -0.0500003 0.00109988
0.3875 -0.0500003 0.00109988
0.4 -0.0500004 0.00109988
0.4125 -0.0500004 0.00109988
0.425 -0.0500004 0.00109988
0.4375 -0.0500004 0.00109988
0.45 -0.0500004 0.00109988
0.4625 -0.0500004 0.00109988
0.475 -0.0500004 0.00109988
0.4875 -0.0500004 0.00109988
0.5 -0.0500004 0.00109988
0.5125 -0.0500004 0.00109988
0.525 -0.0500004 0.00109988
0.5375 -0.0500004 0.00109988
0.55 -0.0500004 0.00109988
0.5625 -0.0500004 0.00109988
0.575 -0.0500004 0.00109987
0.5875 -0.0500004 0.00109987
0.6 -0.0500004 0.00109987
0.6125 -0.0500004 0.00109987
0.625 -0.0500004 0.00109987
0.6375 -0.0500004 0.00109987
0.65 -0.0500004 0.00109987
0.6625 -0.0500004 0.00109987
0.675 -0.0500004 0.00109987
0.6875 -0.0500004 0.00109987
0.7 -0.0500004 0.00109987
0.7125 -0.0500004 0.00109987
0.725 -0.0500004 0.00109987
0.7375 -0.0500004 0.00109987
0.75 -0.0500004 0.00109987
0.7625 -0.0500004 0.00109987
0.775 -0.0500004 0.00109987
0.7875 -0.0500004 0.00109987
0.8 -0.0500004 0.00109987
0.8125 -0.0500004 0.00109987
0.825 -0.0500004 0.00109987
0.8375 -0.0500004 0.00109987
0.85 -0.0500004 0.00109987
0.8625 -0.0500004 0.00109987
0.875 -0.0500004 0.00109987
0.8875 -0.0500004 0.00109987
0.9 -0.0500004 0.00109987
0.9125 -0.0500005 0.00109988
0.925 -0.0500005 0.00109988
0.9375 -0.0500005 0.00109988
0.95 -0.0500005 0.00109988
0.9625 -0.0500005 0.00109988
0.975 -0.0500005 0.00109988
0.9875 -0.0500005 0.00109988
1 -0.0500005 0.00109988
1.0125 -0.0500005 0.00109988
1.025 -0.0500005 0.00109988
1.0375 -0.0500005 0.00109988
1.05 -0.0500005 0.00109988
1.0625 -0.0500005 0.00109988
1.075 -0.0500005 0.00109988
1.0875 -0.0500005 0.00109988
1.1 -0.0500005 0.00109988
1.1125 -0.0500005 0.00109988
1.125 -0.0500005 0.00109988
1.1375 -0.0500005 0.00109988
1.15 -0.0500005 0.00109988
1.1625 -0.0500005 0.00109988
1.175 -0.0500005 0.00109988
1.1875 -0.0500005 0.00109988
1.2 -0.0500005 0.00109988
1.2125 -0.0500005 0.00109988
1.225 -0.0500005 0.00109988
1.2375 -0.0500005 0.00109989
1.25 -0.0500005 0.00109989
1.2625 -0.0500005 0.00109989
1.275 -0.0500005 0.00109989
1.2875 -0.0500005 0.00109989
1.3 -0.0500005 0.00109989
1.3125 -0.0500005 0.00109989
1.325 -0.0500005 0.00109989
1.3375 -0.0500005 0.00109989
1.35 -0.0500005 0.00109989
1.3625 -0.0500005 0.00109989
1.375 -0.0500005 0.00109989
1.3875 -0.0500005 0.00109989
1.4 -0.0500005 0.00109989
1.4125 -0.0500005 0.00109989
1.425 -0.0500005 0.00109989
1.4375 -0.0500005 0.0010999
1.45 -0.0500005 0.0010999
1.4625 -0.0500005 0.0010999
1.475 -0.0500005 0.0010999
1.4875 -0.0500005 0.0010999
1.5 -0.0500006 0.0010999
1.5125 -0.0500006 0.0010999
1.525 -0.0500006 0.0010999
1.5375 -0.0500006 0.0010999
1.55 -0.0500006 0.0010999
1.5625 -0.0500006 0.0010999
1.575 -0.0500006 0.0010999
1.5875 -0.0500006 0.0010999
1.6 -0.0500006 0.0010999
1.6125 -0.0500006 0.00109991
1.625 -0.0500006 0.00109991
1.6375 -0.0500006 0.00109991
1.65 -0.0500006 0.00109991
1.6625 -0.0500006 0.00109991
1.675 -0.0500006 0.00109991
1.6875 -0.0500006 0.00109991
1.7 -0.0500006 0.00109991
1.7125 -0.0500006 0.00109991
1.725 -0.0500006 0.00109991
1.7375 -0.0500006 0.00109991
1.75 -0.0500006 0.00109991
1.7625 -0.0500006 0.00109992
1.775 -0.0500006 0.00109992
1.7875 -0.0500006 0.00109992
1.8 -0.0500006 0.00109992
1.8125 -0.0500006 0.00109992
1.825 -0.0500006 0.00109992
1.8375 -0.0500006 0.00109992
1.85 -0.0500006 0.00109992
1.8625 -0.0500006 0.00109992
1.875 -0.0500006 0.00109992
1.8875 -0.0500006 0.00109992
1.9 -0.0500006 0.00109992
1.9125 -0.0500006 0.00109993
1.925 -0.0500006 0.00109993
1.9375 -0.0500006 0.00109993
1.95 -0.0500006 0.00109993
1.9625 -0.0500006 0.00109993
1.975 -0.0500006 0.00109993
1.9875 -0.0500006 0.00109993
2 -0.0500006 0.00109993
2.0125 -0.0500006 0.00109993
2.025 -0.0500006 0.00109993
2.0375 -0.0500006 0.00109993
2.05 -0.0500006 0.00109993
2.0625 -0.0500006 0.00109994
2.075 -0.0500006 0.00109994
2.0875 -0.0500006 0.00109994
2.1 -0.0500006 0.00109994
2.1125 -0.0500006 0.00109994
2.125 -0.0500006 0.00109994
2.1375 -0.0500006 0.00109994
2.15 -0.0500006 0.00109994
2.1625 -0.0500006 0.00109994
2.175 -0.0500007 0.00109994
2.1875 -0.0500007 0.00109994
2.2 -0.0500007 0.00109994
2.2125 -0.0500007 0.00109994
2.225 -0.0500007 0.00109995
2.2375 -0.0500007 0.00109995
2.25 -0.0500007 0.00109995
2.2625 -0.0500007 0.00109995
2.275 -0.0500007 0.00109995
2.2875 -0.0500007 0.00109995
2.3 -0.0500007 0.00109995
2.3125 -0.0500007 0.00109995
2.325 -0.0500007 0.00109995
2.3375 -0.0500007 0.00109995
2.35 -0.0500007 0.00109995
2.3625 -0.0500007 0.00109995
2.375 -0.0500007 0.00109995
2.3875 -0.0500007 0.00109996
2.4 -0.0500007 0.00109996
2.4125 -0.0500007 0.00109996
2.425 -0.0500007 0.00109996
2.4375 -0.0500007 0.00109996
2.45 -0.0500007 0.00109996
2.4625 -0.0500007 0.00109996
2.475 -0.0500007 0.00109996
2.4875 -0.0500007 0.00109996
2.5 -0.0500007 0.00109996
2.5125 -0.0500007 0.00109996
2.525 -0.0500007 0.00109996
2.5375 -0.0500007 0.00109996
2.55 -0.0500007 0.00109996
2.5625 -0.0500007 0.00109997
2.575 -0.0500007 0.00109997
2.5875 -0.0500007 0.00109997
2.6 -0.0500007 0.00109997
2.6125 -0.0500007 0.00109997
2.625 -0.0500007 0.00109997
2.6375 -0.0500007 0.00109997
2.65 -0.0500007 0.00109997
2.6625 -0.0500007 0.00109997
2.675 -0.0500007 0.00109997
2.6875 -0.0500007 0.00109997
2.7 -0.0500007 0.00109997
2.7125 -0.0500007 0.00109997
2.725 -0.0500007 0.00109997
2.7375 -0.0500007 0.00109997
2.75 -0.0500007 0.00109997
2.7625 -0.0500007 0.00109998
2.775 -0.0500007 0.00109998
2.7875 -0.0500007 0.00109998
2.8 -0.0500007 0.00109998
2.8125 -0.0500007 0.00109998
2.825 -0.0500007 0.00109998
2.8375 -0.0500007 0.00109998
2.85 -0.0500007 0.00109998
2.8625 -0.0500008 0.00109998
2.875 -0.0500008 0.00109998
2.8875 -0.0500008 0.00109998
2.9 -0.0500008 0.00109998
2.9125 -0.0500008 0.00109998
2.925 -0.0500008 0.00109998
2.9375 -0.0500008 0.00109998
2.95 -0.0500008 0.00109998
2.9625 -0.0500008 0.00109998
2.975 -0.0500008 0.00109998
2.9875 -0.0500008 0.00109998
3 -0.0500008 0.00109998
3.0125 -0.0500008 0.00109999
3.025 -0.0500008 0.00109999
3.0375 -0.0500008 0.00109999
3.05 -0.0500008 0.00109999
3.0625 -0.0500008 0.00109999
3.075 -0.0500008 0.00109999
3.0875 -0.0500008 0.00109999
3.1 -0.0500008 0.00109999
3.1125 -0.0500008 0.00109999
3.125 -0.0500008 0.00109999
3.1375 -0.0500008 0.00109999
3.15 -0.0500008 0.00109999
3.1625 -0.0500008 0.00109999
3.175 -0.0500008 0.00109999
3.1875 -0.0500008 0.00109999
3.2 -0.0500008 0.00109999
3.2125 -0.0500008 0.00109999
3.225 -0.0500008 0.00109999
3.2375 -0.0500008 0.00109999
3.25 -0.0500008 0.00109999
3.2625 -0.0500008 0.00109999
3.275 -0.0500008 0.00109999
3.2875 -0.0500008 0.00109999
3.3 -0.0500008 0.00109999
3.3125 -0.0500008 0.00109999
3.325 -0.0500008 0.00109999
3.3375 -0.0500008 0.00109999
3.35 -0.0500008 0.0011
3.3625 -0.0500008 0.0011
[...]
POINT_DATA 15780
 FIELD attributes 1
U 3 15780 float
30.0002 	-7.01804e-06 	-6.30588e-06 30.0002 	-6.84355e-06 	-6.51455e-06 30.0002 	-6.66906e-06 	-6.72322e-06 30.0002 	-6.49458e-06 	-6.93188e-06 30.0002 	-6.32009e-06 	-7.14055e-06 30.0002 	-6.1456e-06 	-7.34922e-06 30.0004 	-1.23855e-05 	-1.26098e-06 30.0004 	-1.23854e-05 	-1.26098e-06 30.0004 	-1.23854e-05 	-1.26098e-06 30.0004 	-1.23854e-05 	-1.26098e-06 30.0002 	-7.06798e-08 	-6.84367e-06 30.0005 	-1.07094e-05 	-1.68702e-06 30.0005 	-1.07094e-05 	-1.68702e-06 30.0005 	-1.07094e-05 	-1.68702e-06 30.0005 	-1.07094e-05 	-1.68702e-06 30.0002 	-7.2382e-08 	-6.59608e-06 30.0005 	-9.95886e-06 	-2.0802e-06 30.0005 	-9.95885e-06 	-2.0802e-06 30.0005 	-9.95884e-06 	-2.0802e-06 30.0005 	-9.95884e-06 	-2.08019e-06 30.0003 	-4.5933e-06 	-6.24726e-06 30.0005 	-9.69213e-06 	-2.34893e-06 30.0005 	-9.69212e-06 	-2.34892e-06 30.0005 	-9.69211e-06 	-2.34892e-06 30.0005 	-9.6921e-06 	-2.34892e-06 30.0003 	-7.60202e-08 	-6.57615e-06 30.0005 	-9.52399e-06 	-2.49779e-06 30.0005 	-9.52399e-06 	-2.49779e-06 30.0005 	-9.52398e-06 	-2.49779e-06 30.0005 	-9.52397e-06 	-2.49778e-06 30.0003 	-7.78002e-08 	-6.52626e-06 30.0005 	-9.38766e-06 	-2.55603e-06 30.0005 	-9.38765e-06 	-2.55603e-06 30.0005 	-9.38764e-06 	-2.55603e-06 30.0005 	-9.38763e-06 	-2.55603e-06 30.0003 	-4.26718e-06 	-6.08528e-06 30.0005 	-9.28026e-06 	-2.55827e-06 30.0005 	-9.28025e-06 	-2.55826e-06 30.0005 	-9.28025e-06 	-2.55826e-06 30.0005 	-9.28024e-06 	-2.55826e-06 30.0003 	-4.19959e-06 	-5.97789e-06 30.0006 	-9.18812e-06 	-2.5304e-06 30.0006 	-9.18811e-06 	-2.5304e-06 30.0006 	-9.1881e-06 	-2.53039e-06 30.0006 	-9.18809e-06 	-2.53039e-06 30.0003 	-8.31568e-08 	-6.20126e-06 30.0006 	-9.09808e-06 	-2.48115e-06 30.0006 	-9.09807e-06 	-2.48115e-06 30.0006 	-9.09806e-06 	-2.48115e-06 30.0006 	-9.09805e-06 	-2.48115e-06 30.0003 	-8.49226e-08 	-6.05423e-06 30.0006 	-9.00564e-06 	-2.41358e-06 30.0006 	-9.00564e-06 	-2.41358e-06 30.0006 	-9.00563e-06 	-2.41358e-06 30.0006 	-9.00562e-06 	-2.41358e-06 30.0003 	-8.66873e-08 	-5.88782e-06 30.0006 	-8.90953e-06 	-2.3297e-06 30.0006 	-8.90952e-06 	-2.3297e-06 30.0006 	-8.90951e-06 	-2.3297e-06 30.0006 	-8.9095e-06 	-2.3297e-06 30.0003 	-3.93824e-06 	-5.36347e-06 30.0006 	-8.80951e-06 	-2.23272e-06 30.0006 	-8.8095e-06 	-2.23272e-06 30.0006 	-8.80949e-06 	-2.23272e-06 30.0006 	-8.80948e-06 	-2.23272e-06 30.0003 	-3.86447e-06 	-5.16476e-06 30.0006 	-8.70527e-06 	-2.12412e-06 30.0006 	-8.70526e-06 	-2.12412e-06 30.0006 	-8.70525e-06 	-2.12411e-06 30.0006 	-8.70524e-06 	-2.12411e-06 30.0003 	-9.19836e-08 	-5.28458e-06 30.0006 	-8.59708e-06 	-2.00506e-06 30.0006 	-8.59707e-06 	-2.00506e-06 30.0006 	-8.59707e-06 	-2.00506e-06 30.0006 	-8.59706e-06 	-2.00506e-06 30.0003 	-3.70487e-06 	-4.7194e-06 30.0007 	-8.48573e-06 	-1.87667e-06 30.0007 	-8.48572e-06 	-1.87667e-06 30.0007 	-8.48572e-06 	-1.87666e-06 30.0007 	-8.48571e-06 	-1.87666e-06 30.0003 	-3.61978e-06 	-4.47431e-06 30.0007 	-8.3724e-06 	-1.73882e-06 30.0007 	-8.3724e-06 	-1.73882e-06 30.0007 	-8.37239e-06 	-1.73882e-06 30.0007 	-8.37238e-06 	-1.73882e-06 30.0004 	-9.7214e-08 	-4.54319e-06 30.0007 	-8.2608e-06 	-1.59801e-06 30.0007 	-8.26079e-06 	-1.59801e-06 30.0007 	-8.26079e-06 	-1.59801e-06 30.0007 	-8.26078e-06 	-1.59801e-06 30.0004 	-9.89382e-08 	-4.27123e-06 30.0007 	-8.1488e-06 	-1.46321e-06 30.0007 	-8.14879e-06 	-1.46321e-06 30.0007 	-8.14879e-06 	-1.46321e-06 30.0007 	-8.14878e-06 	-1.46321e-06 30.0004 	-1.00665e-07 	-3.98926e-06 30.0007 	-8.02073e-06 	-1.32071e-06 30.0007 	-8.02072e-06 	-1.32071e-06 30.0007 	-8.02072e-06 	-1.3207e-06 30.0007 	-8.02072e-06 	-1.3207e-06 30.0004 	-3.25139e-06 	-3.37795e-06 30.0007 	-7.88194e-06 	-1.16799e-06 30.0007 	-7.88194e-06 	-1.16799e-06 30.0007 	-7.88193e-06 	-1.16799e-06 30.0007 	-7.88193e-06 	-1.16799e-06 30.0004 	-1.04086e-07 	-3.40287e-06 30.0007 	-7.74601e-06 	-1.00786e-06 30.0007 	-7.74601e-06 	-1.00786e-06 30.0007 	-7.74601e-06 	-1.00786e-06 30.0007 	-7.74601e-06 	-1.00786e-06 30.0004 	-1.0579e-07 	-3.10326e-06 30.0007 	-7.61189e-06 	-8.41844e-07 30.0007 	-7.61188e-06 	-8.41844e-07 30.0007 	-7.61188e-06 	-8.41843e-07 30.0007 	-7.61188e-06 	-8.41843e-07 30.0004 	-2.93221e-06 	-2.48789e-06 30.0007 	-7.47612e-06 	-6.70191e-07 30.0007 	-7.47612e-06 	-6.70191e-07 30.0007 	-7.47612e-06 	-6.7019e-07 30.0007 	-7.47612e-06 	-6.7019e-07 30.0004 	-2.82573e-06 	-2.18313e-06 30.0007 	-7.34397e-06 	-4.97035e-07 30.0007 	-7.34397e-06 	-4.97034e-07 30.0007 	-7.34396e-06 	-4.97034e-07 30.0007 	-7.34396e-06 	-4.97034e-07 30.0004 	-1.10862e-07 	-2.1711e-06 30.0007 	-7.21616e-06 	-3.17307e-07 30.0007 	-7.21616e-06 	-3.17307e-07 30.0007 	-7.21616e-06 	-3.17307e-07 30.0007 	-7.21616e-06 	-3.17307e-07 30.0004 	-1.12531e-07 	-1.85336e-06 30.0007 	-7.09942e-06 	-1.38202e-07 30.0007 	-7.09942e-06 	-1.38202e-07 30.0007 	-7.09942e-06 	-1.38202e-07 30.0007 	-7.09942e-06 	-1.38202e-07 30.0004 	-1.14188e-07 	-1.54902e-06 30.0007 	-6.9861e-06 	4.0863e-08 30.0007 	-6.9861e-06 	4.0863e-08 30.0007 	-6.9861e-06 	4.0863e-08 30.0007 	-6.9861e-06 	4.0863e-08 30.0004 	-2.43926e-06 	-9.58511e-07 30.0007 	-6.87251e-06 	2.14682e-07 30.0007 	-6.87251e-06 	2.14682e-07 30.0007 	-6.87251e-06 	2.14682e-07 30.0007 	-6.87251e-06 	2.14682e-07 30.0004 	-2.34765e-06 	-6.82311e-07 30.0007 	-6.75431e-06 	3.90731e-07 30.0007 	-6.75431e-06 	3.90731e-07 30.0007 	-6.75431e-06 	3.90731e-07 30.0007 	-6.75431e-06 	3.90731e-07 30.0004 	-1.19121e-07 	-7.09766e-07 30.0007 	-6.64376e-06 	5.6438e-07 30.0007 	-6.64376e-06 	5.6438e-07 30.0007 	-6.64376e-06 	5.6438e-07 30.0007 	-6.64376e-06 	5.6438e-07 30.0004 	-2.16728e-06 	-1.45454e-07 30.0007 	-6.53679e-06 	7.27406e-07 30.0007 	-6.53679e-06 	7.27406e-07 30.0007 	-6.53679e-06 	7.27406e-07 30.0007 	-6.5368e-06 	7.27407e-07 30.0004 	-2.08161e-06 	1.13826e-07 30.0007 	-6.43149e-06 	8.78851e-07 30.0007 	-6.43149e-06 	8.78851e-07 30.0007 	-6.4315e-06 	8.78851e-07 30.0007 	-6.4315e-06 	8.78852e-07 30.0004 	-1.24017e-07 	7.0584e-08 30.0007 	-6.32387e-06 	1.0178e-06 30.0007 	-6.32387e-06 	1.0178e-06 30.0007 	-6.32388e-06 	1.0178e-06 30.0007 	-6.32388e-06 	1.0178e-06 30.0004 	-1.25599e-07 	3.15814e-07 30.0007 	-6.21751e-06 	1.14063e-06 30.0007 	-6.21751e-06 	1.14063e-06 30.0007 	-6.21752e-06 	1.14063e-06 30.0007 	-6.21752e-06 	1.14063e-06 30.0004 	-1.27187e-07 	5.45531e-07 30.0007 	-6.11626e-06 	1.25632e-06 30.0007 	-6.11626e-06 	1.25632e-06 30.0007 	-6.11626e-06 	1.25633e-06 30.0007 	-6.11627e-06 	1.25633e-06 30.0004 	-1.76479e-06 	1.03207e-06 30.0007 	-6.02355e-06 	1.37128e-06 30.0007 	-6.02355e-06 	1.37128e-06 30.0007 	-6.02355e-06 	1.37128e-06 30.0007 	-6.02356e-06 	1.37128e-06 30.0004 	-1.30297e-07 	9.36948e-07 30.0007 	-5.9439e-06 	1.48851e-06 30.0007 	-5.9439e-06 	1.48851e-06 30.0007 	-5.94391e-06 	1.48851e-06 30.0007 	-5.94391e-06 	1.48851e-06 30.0004 	-1.318e-07 	1.10457e-06 30.0007 	-5.87271e-06 	1.5929e-06 30.0007 	-5.87271e-06 	1.5929e-06 30.0007 	-5.87271e-06 	1.5929e-06 30.0007 	-5.87272e-06 	1.5929e-06 30.0004 	-1.59194e-06 	1.53876e-06 30.0007 	-5.80312e-06 	1.67932e-06 30.0007 	-5.80312e-06 	1.67932e-06 30.0007 	-5.80313e-06 	1.67933e-06 30.0007 	-5.80313e-06 	1.67933e-06 30.0003 	-1.54473e-06 	1.67821e-06 30.0007 	-5.73502e-06 	1.75011e-06 30.0007 	-5.73502e-06 	1.75012e-06 30.0007 	-5.73503e-06 	1.75012e-06 30.0007 	-5.73503e-06 	1.75012e-06 30.0003 	-1.36525e-07 	1.52474e-06 30.0006 	-5.66989e-06 	1.80982e-06 30.0006 	-5.66989e-06 	1.80982e-06 30.0006 	-5.6699e-06 	1.80982e-06 30.0006 	-5.6699e-06 	1.80982e-06 30.0003 	-1.38088e-07 	1.63228e-06 30.0006 	-5.60983e-06 	1.85995e-06 30.0006 	-5.60984e-06 	1.85995e-06 30.0006 	-5.60984e-06 	1.85995e-06 30.0006 	-5.60984e-06 	1.85995e-06 30.0003 	-1.39571e-07 	1.72401e-06 30.0006 	-5.55557e-06 	1.90044e-06 30.0006 	-5.55557e-06 	1.90044e-06 30.0006 	-5.55557e-06 	1.90044e-06 30.0006 	-5.55558e-06 	1.90044e-06 30.0003 	-1.38945e-06 	2.07103e-06 30.0006 	-5.50676e-06 	1.9311e-06 30.0006 	-5.50677e-06 	1.93111e-06 30.0006 	-5.50677e-06 	1.93111e-06 30.0006 	-5.50678e-06 	1.93111e-06 30.0003 	-1.36243e-06 	2.13097e-06 30.0006 	-5.463e-06 	1.95184e-06 30.0006 	-5.463e-06 	1.95184e-06 30.0006 	-5.46301e-06 	1.95184e-06 30.0006 	-5.46301e-06 	1.95184e-06 30.0003 	-1.43623e-07 	1.90827e-06 30.0006 	-5.42419e-06 	1.96279e-06 30.0006 	-5.4242e-06 	1.96279e-06 30.0006 	-5.4242e-06 	1.96279e-06 30.0006 	-5.4242e-06 	1.96279e-06 30.0003 	-1.32404e-06 	2.20766e-06 30.0006 	-5.39026e-06 	1.96432e-06 30.0006 	-5.39027e-06 	1.96432e-06 30.0006 	-5.39027e-06 	1.96432e-06 30.0006 	-5.39027e-06 	1.96432e-06 30.0003 	-1.31227e-06 	2.22555e-06 30.0006 	-5.36111e-06 	1.95693e-06 30.0006 	-5.36111e-06 	1.95693e-06 30.0006 	-5.36112e-06 	1.95693e-06 30.0006 	-5.36112e-06 	1.95693e-06 30.0003 	-1.47523e-07 	1.96618e-06 30.0005 	-5.33661e-06 	1.94113e-06 30.0005 	-5.33662e-06 	1.94113e-06 30.0005 	-5.33662e-06 	1.94113e-06 30.0005 	-5.33662e-06 	1.94113e-06 30.0003 	-1.4878e-07 	1.96058e-06 30.0005 	-5.31663e-06 	1.91794e-06 30.0005 	-5.31664e-06 	1.91794e-06 30.0005 	-5.31664e-06 	1.91794e-06 30.0005 	-5.31665e-06 	1.91794e-06 30.0003 	-1.50001e-07 	1.94425e-06 30.0005 	-5.30106e-06 	1.88801e-06 30.0005 	-5.30106e-06 	1.88801e-06 30.0005 	-5.30106e-06 	1.88801e-06 30.0005 	-5.30107e-06 	1.88801e-06 30.0003 	-1.30972e-06 	2.17901e-06 30.0005 	-5.28974e-06 	1.85191e-06 30.0005 	-5.28974e-06 	1.85191e-06 30.0005 	-5.28974e-06 	1.85192e-06 30.0005 	-5.28975e-06 	1.85192e-06 30.0003 	-1.52364e-07 	1.88231e-06 30.0005 	-5.28248e-06 	1.81009e-06 30.0005 	-5.28248e-06 	1.81009e-06 30.0005 	-5.28249e-06 	1.8101e-06 30.0005 	-5.28249e-06 	1.8101e-06 30.0003 	-1.53488e-07 	1.83819e-06 30.0005 	-5.27905e-06 	1.76317e-06 30.0005 	-5.27906e-06 	1.76317e-06 30.0005 	-5.27906e-06 	1.76318e-06 30.0005 	-5.27906e-06 	1.76318e-06 30.0003 	-1.34897e-06 	2.04409e-06 30.0005 	-5.27925e-06 	1.71164e-06 30.0005 	-5.27926e-06 	1.71164e-06 30.0005 	-5.27926e-06 	1.71164e-06 30.0005 	-5.27926e-06 	1.71164e-06 30.0003 	-1.36904e-06 	1.98426e-06 30.0005 	-5.28278e-06 	1.65601e-06 30.0005 	-5.28279e-06 	1.65601e-06 30.0005 	-5.28279e-06 	1.65601e-06 30.0005 	-5.28279e-06 	1.65601e-06 30.0002 	-1.56721e-07 	1.66283e-06 30.0005 	-5.28959e-06 	1.5967e-06 30.0005 	-5.28959e-06 	1.5967e-06 30.0005 	-5.28959e-06 	1.5967e-06 30.0005 	-5.2896e-06 	1.5967e-06 30.0002 	-1.57778e-07 	1.59258e-06 30.0004 	-5.29955e-06 	1.53417e-06 30.0004 	-5.29955e-06 	1.53417e-06 30.0004 	-5.29955e-06 	1.53418e-06 30.0004 	-5.29956e-06 	1.53418e-06 30.0002 	-1.58861e-07 	1.51772e-06 30.0004 	-5.31251e-06 	1.46891e-06 30.0004 	-5.31252e-06 	1.46891e-06 30.0004 	-5.31252e-06 	1.46891e-06 30.0004 	-5.31252e-06 	1.46891e-06 30.0002 	-1.48071e-06 	1.69064e-06 30.0004 	-5.32809e-06 	1.40146e-06 30.0004 	-5.32809e-06 	1.40146e-06 30.0004 	-5.32809e-06 	1.40147e-06 30.0004 	-5.32809e-06 	1.40147e-06 30.0002 	-1.51524e-06 	1.60715e-06 30.0004 	-5.34594e-06 	1.33222e-06 30.0004 	-5.34594e-06 	1.33222e-06 30.0004 	-5.34594e-06 	1.33222e-06 30.0004 	-5.34595e-06 	1.33222e-06 30.0002 	-1.62106e-07 	1.27189e-06 30.0004 	-5.36592e-06 	1.2615e-06 30.0004 	-5.36592e-06 	1.2615e-06 30.0004 	-5.36592e-06 	1.2615e-06 30.0004 	-5.36593e-06 	1.2615e-06 30.0002 	-1.59055e-06 	1.43251e-06 30.0004 	-5.38776e-06 	1.18983e-06 30.0004 	-5.38777e-06 	1.18983e-06 30.0004 	-5.38777e-06 	1.18983e-06 30.0004 	-5.38777e-06 	1.18983e-06 30.0002 	-1.63104e-06 	1.34244e-06 30.0004 	-5.4114e-06 	1.11751e-06 30.0004 	-5.41141e-06 	1.11751e-06 30.0004 	-5.41141e-06 	1.11751e-06 30.0004 	-5.41141e-06 	1.11751e-06 30.0002 	-1.65114e-07 	1.00612e-06 30.0004 	-5.43646e-06 	1.04483e-06 30.0004 	-5.43646e-06 	1.04483e-06 30.0004 	-5.43647e-06 	1.04483e-06 30.0004 	-5.43647e-06 	1.04483e-06 30.0002 	-1.66045e-07 	9.15645e-07 30.0004 	-5.46214e-06 	9.72289e-07 30.0004 	-5.46214e-06 	9.7229e-07 30.0004 	-5.46214e-06 	9.7229e-07 30.0004 	-5.46214e-06 	9.7229e-07 30.0002 	-1.66951e-07 	8.25022e-07 30.0004 	-5.4882e-06 	8.99509e-07 30.0004 	-5.4882e-06 	8.99509e-07 30.0004 	-5.4882e-06 	8.99509e-07 30.0004 	-5.48821e-06 	8.9951e-07 30.0002 	-1.80793e-06 	9.75441e-07 30.0004 	-5.51501e-06 	8.25976e-07 30.0004 	-5.51501e-06 	8.25977e-07 30.0004 	-5.51501e-06 	8.25977e-07 30.0004 	-5.51502e-06 	8.25977e-07 30.0002 	-1.68663e-07 	6.43656e-07 30.0003 	-5.54476e-06 	7.52016e-07 30.0003 	-5.54476e-06 	7.52016e-07 30.0003 	-5.54477e-06 	7.52017e-07 30.0003 	-5.54477e-06 	7.52017e-07 30.0002 	-1.69478e-07 	5.52661e-07 30.0003 	-5.57925e-06 	6.77471e-07 30.0003 	-5.57925e-06 	6.77472e-07 30.0003 	-5.57926e-06 	6.77472e-07 30.0003 	-5.57926e-06 	6.77472e-07 30.0002 	-1.9563e-06 	7.01332e-07 30.0003 	-5.61613e-06 	6.04409e-07 30.0003 	-5.61613e-06 	6.04409e-07 30.0003 	-5.61613e-06 	6.04409e-07 30.0003 	-5.61613e-06 	6.04409e-07 30.0002 	-2.00849e-06 	6.11702e-07 30.0003 	-5.65215e-06 	5.34689e-07 30.0003 	-5.65215e-06 	5.34689e-07 30.0003 	-5.65215e-06 	5.3469e-07 30.0003 	-5.65215e-06 	5.3469e-07 30.0002 	-1.71958e-07 	2.80967e-07 30.0003 	-5.68325e-06 	4.67668e-07 30.0003 	-5.68325e-06 	4.67668e-07 30.0003 	-5.68325e-06 	4.67668e-07 30.0003 	-5.68325e-06 	4.67668e-07 30.0002 	-1.72781e-07 	1.97352e-07 30.0003 	-5.71167e-06 	4.03223e-07 30.0003 	-5.71167e-06 	4.03223e-07 30.0003 	-5.71167e-06 	4.03223e-07 30.0003 	-5.71167e-06 	4.03223e-07 30.0002 	-1.73579e-07 	1.16421e-07 30.0003 	-5.73984e-06 	3.3926e-07 30.0003 	-5.73984e-06 	3.3926e-07 30.0003 	-5.73984e-06 	3.3926e-07 30.0003 	-5.73984e-06 	3.3926e-07 30.0002 	-2.20172e-06 	2.741e-07 30.0003 	-5.76782e-06 	2.75298e-07 30.0003 	-5.76783e-06 	2.75298e-07 30.0003 	-5.76783e-06 	2.75298e-07 30.0003 	-5.76783e-06 	2.75298e-07 30.0002 	-2.24864e-06 	1.96356e-07 30.0003 	-5.79448e-06 	2.10807e-07 30.0003 	-5.79448e-06 	2.10807e-07 30.0003 	-5.79448e-06 	2.10807e-07 30.0003 	-5.79448e-06 	2.10807e-07 30.0002 	-1.75701e-07 	-1.0913e-07 30.0003 	-5.82242e-06 	1.48793e-07 30.0003 	-5.82242e-06 	1.48793e-07 30.0003 	-5.82242e-06 	1.48793e-07 30.0003 	-5.82242e-06 	1.48793e-07 30.0002 	-2.34236e-06 	4.46667e-08 30.0003 	-5.85168e-06 	8.99985e-08 30.0003 	-5.85168e-06 	8.99985e-08 30.0003 	-5.85168e-06 	8.99986e-08 30.0003 	-5.85168e-06 	8.99986e-08 30.0002 	-2.38966e-06 	-2.91064e-08 30.0003 	-5.88209e-06 	3.4834e-08 30.0003 	-5.88209e-06 	3.4834e-08 30.0003 	-5.88209e-06 	3.4834e-08 30.0003 	-5.88209e-06 	3.4834e-08 30.0002 	-1.77652e-07 	-3.30758e-07 30.0003 	-5.91371e-06 	-1.70569e-08 30.0003 	-5.91371e-06 	-1.70569e-08 30.0003 	-5.91371e-06 	-1.70569e-08 30.0003 	-5.91371e-06 	-1.70569e-08 30.0002 	-1.78248e-07 	-4.01796e-07 30.0003 	-5.94683e-06 	-6.90388e-08 30.0003 	-5.94683e-06 	-6.90388e-08 30.0003 	-5.94683e-06 	-6.90388e-08 30.0003 	-5.94683e-06 	-6.90388e-08 30.0002 	-1.78847e-07 	-4.67069e-07 30.0003 	-5.97879e-06 	-1.23303e-07 30.0003 	-5.97879e-06 	-1.23303e-07 30.0003 	-5.97879e-06 	-1.23303e-07 30.0003 	-5.97879e-06 	-1.23303e-07 30.0002 	-2.58112e-06 	-3.01386e-07 30.0003 	-6.00657e-06 	-1.77946e-07 30.0003 	-6.00657e-06 	-1.77946e-07 30.0003 	-6.00656e-06 	-1.77946e-07 30.0003 	-6.00656e-06 	-1.77946e-07 30.0002 	-1.80022e-07 	-5.84883e-07 30.0003 	-6.03068e-06 	-2.29204e-07 30.0003 	-6.03068e-06 	-2.29204e-07 30.0003 	-6.03068e-06 	-2.29204e-07 30.0003 	-6.03068e-06 	-2.29204e-07 30.0002 	-1.80598e-07 	-6.42147e-07 30.0003 	-6.05391e-06 	-2.76168e-07 30.0003 	-6.05391e-06 	-2.76168e-07 30.0003 	-6.05391e-06 	-2.76168e-07 30.0003 	-6.05391e-06 	-2.76168e-07 30.0002 	-2.70917e-06 	-4.78989e-07 30.0003 	-6.07776e-06 	-3.19645e-07 30.0003 	-6.07776e-06 	-3.19645e-07 30.0003 	-6.07776e-06 	-3.19645e-07 30.0003 	-6.07776e-06 	-3.19645e-07 30.0002 	-2.75018e-06 	-5.34033e-07 30.0003 	-6.10191e-06 	-3.61181e-07 30.0003 	-6.10191e-06 	-3.61181e-07 30.0003 	-6.10191e-06 	-3.61181e-07 30.0003 	-6.10191e-06 	-3.61181e-07 30.0002 	-1.82308e-07 	-8.03787e-07 30.0003 	-6.12593e-06 	-4.01377e-07 30.0003 	-6.12593e-06 	-4.01377e-07 30.0003 	-6.12593e-06 	-4.01377e-07 30.0003 	-6.12593e-06 	-4.01377e-07 30.0001 	-1.82847e-07 	-8.53107e-07 30.0003 	-6.14932e-06 	-4.4037e-07 30.0003 	-6.14932e-06 	-4.4037e-07 30.0003 	-6.14932e-06 	-4.4037e-07 30.0003 	-6.14932e-06 	-4.4037e-07 30.0001 	-1.8338e-07 	-9.00316e-07 30.0003 	-6.17197e-06 	-4.77989e-07 30.0003 	-6.17197e-06 	-4.77989e-07 30.0003 	-6.17197e-06 	-4.77988e-07 30.0003 	-6.17197e-06 	-4.77988e-07 30.0001 	-2.90963e-06 	-7.31463e-07 30.0003 	-6.19376e-06 	-5.14201e-07 30.0003 	-6.19376e-06 	-5.14201e-07 30.0003 	-6.19376e-06 	-5.14201e-07 30.0003 	-6.19376e-06 	-5.14201e-07 30.0001 	-2.9475e-06 	-7.75591e-07 30.0003 	-6.21459e-06 	-5.48827e-07 30.0003 	-6.21459e-06 	-5.48827e-07 30.0003 	-6.21459e-06 	-5.48827e-07 30.0003 	-6.21459e-06 	-5.48827e-07 30.0001 	-1.84852e-07 	-1.02953e-06 30.0003 	-6.23462e-06 	-5.82047e-07 30.0003 	-6.23462e-06 	-5.82046e-07 30.0003 	-6.23462e-06 	-5.82046e-07 30.0003 	-6.23462e-06 	-5.82046e-07 30.0001 	-3.02044e-06 	-8.5748e-07 30.0003 	-6.2539e-06 	-6.13886e-07 30.0003 	-6.25389e-06 	-6.13886e-07 30.0003 	-6.25389e-06 	-6.13886e-07 30.0003 	-6.25389e-06 	-6.13885e-07 30.0001 	-3.05553e-06 	-8.95486e-07 30.0003 	-6.27237e-06 	-6.44407e-07 30.0003 	-6.27236e-06 	-6.44407e-07 30.0003 	-6.27236e-06 	-6.44407e-07 30.0003 	-6.27236e-06 	-6.44406e-07 30.0001 	-1.86228e-07 	-1.14085e-06 30.0003 	-6.28999e-06 	-6.7361e-07 30.0003 	-6.28998e-06 	-6.7361e-07 30.0003 	-6.28998e-06 	-6.7361e-07 30.0003 	-6.28998e-06 	-6.7361e-07 30.0001 	-1.86653e-07 	-1.1746e-06 30.0003 	-6.30699e-06 	-7.01429e-07 30.0003 	-6.30699e-06 	-7.01429e-07 30.0003 	-6.30699e-06 	-7.01428e-07 30.0003 	-6.30699e-06 	-7.01428e-07 30.0001 	-1.87096e-07 	-1.20669e-06 30.0003 	-6.32308e-06 	-7.27859e-07 30.0003 	-6.32307e-06 	-7.27859e-07 30.0003 	-6.32307e-06 	-7.27859e-07 30.0003 	-6.32307e-06 	-7.27859e-07 30.0001 	-3.18692e-06 	-1.03101e-06 30.0003 	-6.33833e-06 	-7.52971e-07 30.0003 	-6.33833e-06 	-7.52971e-07 30.0003 	-6.33833e-06 	-7.52971e-07 30.0003 	-6.33833e-06 	-7.52971e-07 30.0001 	-1.87952e-07 	-1.26597e-06 30.0003 	-6.35283e-06 	-7.7694e-07 30.0003 	-6.35283e-06 	-7.76939e-07 30.0003 	-6.35283e-06 	-7.76939e-07 30.0003 	-6.35283e-06 	-7.76939e-07 30.0001 	-1.8835e-07 	-1.29333e-06 30.0003 	-6.36663e-06 	-7.9981e-07 30.0003 	-6.36663e-06 	-7.9981e-07 30.0003 	-6.36663e-06 	-7.9981e-07 30.0003 	-6.36662e-06 	-7.99809e-07 30.0001 	-3.2763e-06 	-1.11606e-06 30.0003 	-6.37971e-06 	-8.21537e-07 30.0003 	-6.3797e-06 	-8.21536e-07 30.0003 	-6.3797e-06 	-8.21536e-07 30.0003 	-6.3797e-06 	-8.21536e-07 30.0001 	-3.30439e-06 	-1.14153e-06 30.0003 	-6.39194e-06 	-8.41975e-07 30.0003 	-6.39193e-06 	-8.41975e-07 30.0003 	-6.39193e-06 	-8.41974e-07 30.0003 	-6.39193e-06 	-8.41974e-07 30.0001 	-1.89518e-07 	-1.36687e-06 30.0003 	-6.40354e-06 	-8.61366e-07 30.0003 	-6.40354e-06 	-8.61366e-07 30.0003 	-6.40354e-06 	-8.61365e-07 30.0003 	-6.40354e-06 	-8.61365e-07 30.0001 	-1.89894e-07 	-1.38875e-06 30.0003 	-6.41448e-06 	-8.79804e-07 30.0003 	-6.41447e-06 	-8.79803e-07 30.0003 	-6.41447e-06 	-8.79803e-07 30.0003 	-6.41447e-06 	-8.79803e-07 30.0001 	-1.90268e-07 	-1.4094e-06 30.0003 	-6.42471e-06 	-8.97286e-07 30.0003 	-6.42471e-06 	-8.97286e-07 30.0003 	-6.42471e-06 	-8.97286e-07 30.0003 	-6.42471e-06 	-8.97286e-07 30.0001 	-3.40866e-06 	-1.23053e-06 30.0003 	-6.43428e-06 	-9.13871e-07 30.0003 	-6.43428e-06 	-9.13871e-07 30.0003 	-6.43428e-06 	-9.13871e-07 30.0003 	-6.43428e-06 	-9.1387e-07 30.0001 	-3.43278e-06 	-1.24986e-06 30.0003 	-6.4431e-06 	-9.29561e-07 30.0003 	-6.4431e-06 	-9.29561e-07 30.0003 	-6.4431e-06 	-9.29561e-07 30.0003 	-6.4431e-06 	-9.2956e-07 30.0001 	-1.91309e-07 	-1.46457e-06 30.0003 	-6.45132e-06 	-9.44417e-07 30.0003 	-6.45132e-06 	-9.44417e-07 30.0003 	-6.45132e-06 	-9.44417e-07 30.0003 	-6.45132e-06 	-9.44416e-07 30.0001 	-3.47882e-06 	-1.28535e-06 30.0003 	-6.45899e-06 	-9.58422e-07 30.0003 	-6.45899e-06 	-9.58422e-07 30.0003 	-6.45899e-06 	-9.58421e-07 30.0003 	-6.45898e-06 	-9.58421e-07 30.0001 	-3.50086e-06 	-1.30161e-06 30.0003 	-6.46605e-06 	-9.71714e-07 30.0003 	-6.46605e-06 	-9.71714e-07 30.0003 	-6.46605e-06 	-9.71713e-07 30.0003 	-6.46605e-06 	-9.71713e-07