# vtk DataFile Version 2.0
track0
ASCII
DATASET POLYDATA
POINTS 15780 float
-1.001 -0.05 0.0011
-1.0008 -0.05 0.0011
-1.0006 -0.05 0.0011
-1.0004 -0.05 0.0011
-1.0002 -0.05 0.0011
-1 -0.05 0.0011
-0.9875 -0.05 0.0011
-0.975 -0.05 0.0011
-0.9625 -0.05 0.0011
-0.95 -0.05 0.0011
-0.9375 -0.05 0.00109999
-0.925 -0.05 0.00109999
-0.9125 -0.05 0.00109999
-0.9 -0.05 0.00109999
-0.8875 -0.05 0.00109999
-0.875 -0.05 0.00109999
-0.8625 -0.05 0.00109999
-0.85 -0.05 0.00109999
-0.8375 -0.05 0.00109998
-0.825 -0.0500001 0.00109998
-0.8125 -0.0500001 0.00109998
-0.8 -0.0500001 0.00109998
-0.7875 -0.0500001 0.00109998
-0.775 -0.0500001 0.00109998
-0.7625 -0.0500001 0.00109998
-0.75 -0.0500001 0.00109998
-0.7375 -0.0500001 0.00109997
-0.725 -0.0500001 0.00109997
-0.7125 -0.0500001 0.00109997
-0.7 -0.0500001 0.00109997
-0.6875 -0.0500001 0.00109997
-0.675 -0.0500001 0.00109997
-0.6625 -0.0500001 0.00109997
-0.65 -0.0500001 0.00109996
-0.6375 -0.0500001 0.00109996
-0.625 -0.0500001 0.00109996
-0.6125 -0.0500001 0.00109996
-0.6 -0.0500001 0.00109996
-0.5875 -0.0500001 0.00109996
-0.575 -0.0500001 0.00109996
-0.5625 -0.0500001 0.00109996
-0.55 -0.0500001 0.00109995
-0.5375 -0.0500001 0.00109995
-0.525 -0.0500001 0.00109995
-0.5125 -0.0500001 0.00109995
-0.5 -0.0500001 0.00109995
-0.4875 -0.0500001 0.00109995
-0.475 -0.0500001 0.00109995
-0.4625 -0.0500001 0.00109994
-0.45 -0.0500002 0.00109994
-0.4375 -0.0500002 0.00109994
-0.425 -0.0500002 0.00109994
-0.4125 -0.0500002 0.00109994
-0.4 -0.0500002 0.00109994
-0.3875 -0.0500002 0.00109994
-0.375 -0.0500002 0.00109994
-0.3625 -0.0500002 0.00109993
-0.35 -0.0500002 0.00109993
-0.3375 -0.0500002 0.00109993
-0.325 -0.0500002 0.00109993
-0.3125 -0.0500002 0.00109993
-0.3 -0.0500002 0.00109993
-0.2875 -0.0500002 0.00109993
-0.275 -0.0500002 0.00109993
-0.2625 -0.0500002 0.00109992
-0.25 -0.0500002 0.00109992
-0.2375 -0.0500002 0.00109992
-0.225 -0.0500002 0.00109992
-0.2125 -0.0500002 0.00109992
-0.2 -0.0500002 0.00109992
-0.1875 -0.0500002 0.00109992
-0.175 -0.0500002 0.00109992
-0.1625 -0.0500002 0.00109991
-0.15 -0.0500002 0.00109991
-0.1375 -0.0500002 0.00109991
-0.125 -0.0500002 0.00109991
-0.1125 -0.0500002 0.00109991
-0.1 -0.0500002 0.00109991
-0.0875 -0.0500002 0.00109991
-0.075 -0.0500002 0.00109991
-0.0625 -0.0500002 0.00109991
-0.05 -0.0500003 0.00109991
-0.0375 -0.0500003 0.0010999
-0.025 -0.0500003 0.0010999
-0.0125 -0.0500003 0.0010999
2.10607e-13 -0.0500003 0.0010999
0.0125 -0.0500003 0.0010999
0.025 -0.0500003 0.0010999
0.0375 -0.0500003 0.0010999
0.05 -0.0500003 0.0010999
0.0625 -0.0500003 0.0010999
0.075 -0.0500003 0.0010999
0.0875 -0.0500003 0.0010999
0.1 -0.0500003 0.00109989
0.1125 -0.0500003 0.00109989
0.125 -0.0500003 0.00109989
0.1375 -0.0500003 0.00109989
0.15 -0.0500003 0.00109989
0.1625 -0.0500003 0.00109989
0.175 -0.0500003 0.00109989
0.1875 -0.0500003 0.00109989
0.2 -0.0500003 0.00109989
0.2125 -0.0500003 0.00109989
0.225 -0.0500003 0.00109989
0.2375 -0.0500003 0.00109989
0.25 -0.0500003 0.00109989
0.2625 -0.0500003 0.00109988
0.275 -0.0500003 0.00109988
0.2875 -0.0500003 0.00109988
0.3 -0.0500003 0.00109988
0.3125 -0.0500003 0.00109988
0.325 -0.0500003 0.00109988
0.3375 -0.0500003 0.00109988
0.35 -0.0500003 0.00109988
0.3625 -0.0500003 0.00109988
0.375 -0.0500003 0.00109988
0.3875 -0.0500003 0.00109988
0.4 -0.0500004 0.00109988
0.4125 -0.0500004 0.00109988
0.425 -0.0500004 0.00109988
0.4375 -0.0500004 0.00109988
0.45 -0.0500004 0.00109988
0.4625 -0.0500004 0.00109988
0.475 -0.0500004 0.00109988
0.4875 -0.0500004 0.00109988
0.5 -0.0500004 0.00109988
0.5125 -0.0500004 0.00109988
0.525 -0.0500004 0.00109988
0.5375 -0.0500004 0.00109988
0.55 -0.0500004 0.00109988
0.5625 -0.0500004 0.00109988
0.575 -0.0500004 0.00109987
0.5875 -0.0500004 0.00109987
0.6 -0.0500004 0.00109987
0.6125 -0.0500004 0.00109987
0.625 -0.0500004 0.00109987
0.6375 -0.0500004 0.00109987
0.65 -0.0500004 0.00109987
0.6625 -0.0500004 0.00109987
0.675 -0.0500004 0.00109987
0.6875 -0.0500004 0.00109987
0.7 -0.0500004 0.00109987
0.7125 -0.0500004 0.00109987
0.725 -0.0500004 0.00109987
0.7375 -0.0500004 0.00109987
0.75 -0.0500004 0.00109987
0.7625 -0.0500004 0.00109987
0.775 -0.0500004 0.00109987
0.7875 -0.0500004 0.00109987
0.8 -0.0500004 0.00109987
0.8125 -0.0500004 0.00109987
0.825 -0.0500004 0.00109987
0.8375 -0.0500004 0.00109987
0.85 -0.0500004 0.00109987
0.8625 -0.0500004 0.00109987
0.875 -0.0500004 0.00109987
0.8875 -0.0500004 0.00109987
0.9 -0.0500004 0.00109987
0.9125 -0.0500005 0.00109988
0.925 -0.0500005 0.00109988
0.9375 -0.0500005 0.00109988
0.95 -0.0500005 0.00109988
0.9625 -0.0500005 0.00109988
0.975 -0.0500005 0.00109988
0.9875 -0.0500005 0.00109988
1 -0.0500005 0.00109988
1.0125 -0.0500005 0.00109988
1.025 -0.0500005 0.00109988
1.0375 -0.0500005 0.00109988
1.05 -0.0500005 0.00109988
1.0625 -0.0500005 0.00109988
1.075 -0.0500005 0.00109988
1.0875 -0.0500005 0.00109988
1.1 -0.0500005 0.00109988
1.1125 -0.0500005 0.00109988
1.125 -0.0500005 0.00109988
1.1375 -0.0500005 0.00109988
1.15 -0.0500005 0.00109988
1.1625 -0.0500005 0.00109988
1.175 -0.0500005 0.00109988
1.1875 -0.0500005 0.00109988
1.2 -0.0500005 0.00109988
1.2125 -0.0500005 0.00109988
1.225 -0.0500005 0.00109988
1.2375 -0.0500005 0.00109989
1.25 -0.0500005 0.00109989
1.2625 -0.0500005 0.00109989
1.275 -0.0500005 0.00109989
1.2875 -0.0500005 0.00109989
1.3 -0.0500005 0.00109989
1.3125 -0.0500005 0.00109989
1.325 -0.0500005 0.00109989
1.3375 -0.0500005 0.00109989
1.35 -0.0500005 0.00109989
1.3625 -0.0500005 0.00109989
1.375 -0.0500005 0.00109989
1.3875 -0.0500005 0.00109989
1.4 -0.0500005 0.00109989
1.4125 -0.0500005 0.00109989
1.425 -0.0500005 0.00109989
1.4375 -0.0500005 0.0010999
1.45 -0.0500005 0.0010999
1.4625 -0.0500005 0.0010999
1.475 -0.0500005 0.0010999
1.4875 -0.0500005 0.0010999
1.5 -0.0500006 0.0010999
1.5125 -0.0500006 0.0010999
1.525 -0.0500006 0.0010999
1.5375 -0.0500006 0.0010999
1.55 -0.0500006 0.0010999
1.5625 -0.0500006 0.0010999
1.575 -0.0500006 0.0010999
1.5875 -0.0500006 0.0010999
1.6 -0.0500006 0.0010999
1.6125 -0.0500006 0.00109991
1.625 -0.0500006 0.00109991
1.6375 -0.0500006 0.00109991
1.65 -0.0500006 0.00109991
1.6625 -0.0500006 0.00109991
1.675 -0.0500006 0.00109991
1.6875 -0.0500006 0.00109991
1.7 -0.0500006 0.00109991
1.7125 -0.0500006 0.00109991
1.725 -0.0500006 0.00109991
1.7375 -0.0500006 0.00109991
1.75 -0.0500006 0.00109991
1.7625 -0.0500006 0.00109992
1.775 -0.0500006 0.00109992
1.7875 -0.0500006 0.00109992
1.8 -0.0500006 0.00109992
1.8125 -0.0500006 0.00109992
1.825 -0.0500006 0.00109992
1.8375 -0.0500006 0.00109992
1.85 -0.0500006 0.00109992
1.8625 -0.0500006 0.00109992
1.875 -0.0500006 0.00109992
1.8875 -0.0500006 0.00109992
1.9 -0.0500006 0.00109992
1.9125 -0.0500006 0.00109993
1.925 -0.0500006 0.00109993
1.9375 -0.0500006 0.00109993
1.95 -0.0500006 0.00109993
1.9625 -0.0500006 0.00109993
1.975 -0.0500006 0.00109993
1.9875 -0.0500006 0.00109993
2 -0.0500006 0.00109993
2.0125 -0.0500006 0.00109993
2.025 -0.0500006 0.00109993
2.0375 -0.0500006 0.00109993
2.05 -0.0500006 0.00109993
2.0625 -0.0500006 0.00109994
2.075 -0.0500006 0.00109994
2.0875 -0.0500006 0.00109994
2.1 -0.0500006 0.00109994
2.1125 -0.0500006 0.00109994
2.125 -0.0500006 0.00109994
2.1375 -0.0500006 0.00109994
2.15 -0.0500006 0.00109994
2.1625 -0.0500006 0.00109994
2.175 -0.0500007 0.00109994
2.1875 -0.0500007 0.00109994
2.2 -0.0500007 0.00109994
2.2125 -0.0500007 0.00109994
2.225 -0.0500007 0.00109995
2.2375 -0.0500007 0.00109995
2.25 -0.0500007 0.00109995
2.2625 -0.0500007 0.00109995
2.275 -0.0500007 0.00109995
2.2875 -0.0500007 0.00109995
2.3 -0.0500007 0.00109995
2.3125 -0.0500007 0.00109995
2.325 -0.0500007 0.00109995
2.3375 -0.0500007 0.00109995
2.35 -0.0500007 0.00109995
2.3625 -0.0500007 0.00109995
2.375 -0.0500007 0.00109995
2.3875 -0.0500007 0.00109996
2.4 -0.0500007 0.00109996
2.4125 -0.0500007 0.00109996
2.425 -0.0500007 0.00109996
2.4375 -0.0500007 0.00109996
2.45 -0.0500007 0.00109996
2.4625 -0.0500007 0.00109996
2.475 -0.0500007 0.00109996
2.4875 -0.0500007 0.00109996
2.5 -0.0500007 0.00109996
2.5125 -0.0500007 0.00109996
2.525 -0.0500007 0.00109996
2.5375 -0.0500007 0.00109996
2.55 -0.0500007 0.00109996
2.5625 -0.0500007 0.00109997
2.575 -0.0500007 0.00109997
2.5875 -0.0500007 0.00109997
2.6 -0.0500007 0.00109997
2.6125 -0.0500007 0.00109997
2.625 -0.0500007 0.00109997
2.6375 -0.0500007 0.00109997
2.65 -0.0500007 0.00109997
2.6625 -0.0500007 0.00109997
2.675 -0.0500007 0.00109997
2.6875 -0.0500007 0.00109997
2.7 -0.0500007 0.00109997
2.7125 -0.0500007 0.00109997
2.725 -0.0500007 0.00109997
2.7375 -0.0500007 0.00109997
2.75 -0.0500007 0.00109997
2.7625 -0.0500007 0.00109998
2.775 -0.0500007 0.00109998
2.7875 -0.0500007 0.00109998
2.8 -0.0500007 0.00109998
2.8125 -0.0500007 0.00109998
2.825 -0.0500007 0.00109998
2.8375 -0.0500007 0.00109998
2.85 -0.0500007 0.00109998
2.8625 -0.0500008 0.00109998
2.875 -0.0500008 0.00109998
2.8875 -0.0500008 0.00109998
2.9 -0.0500008 0.00109998
2.9125 -0.0500008 0.00109998
2.925 -0.0500008 0.00109998
2.9375 -0.0500008 0.00109998
2.95 -0.0500008 0.00109998
2.9625 -0.0500008 0.00109998
2.975 -0.0500008 0.00109998
2.9875 -0.0500008 0.00109998
3 -0.0500008 0.00109998
3.0125 -0.0500008 0.00109999
3.025 -0.0500008 0.00109999
3.0375 -0.0500008 0.00109999
3.05 -0.0500008 0.00109999
3.0625 -0.0500008 0.00109999
3.075 -0.0500008 0.00109999
3.0875 -0.0500008 0.00109999
3.1 -0.0500008 0.00109999
3.1125 -0.0500008 0.00109999
3.125 -0.0500008 0.00109999
3.1375 -0.0500008 0.00109999
3.15 -0.0500008 0.00109999
3.1625 -0.0500008 0.00109999
3.175 -0.0500008 0.00109999
3.1875 -0.0500008 0.00109999
3.2 -0.0500008 0.00109999
3.2125 -0.0500008 0.00109999
3.225 -0.0500008 0.00109999
3.2375 -0.0500008 0.00109999
3.25 -0.0500008 0.00109999
3.2625 -0.0500008 0.00109999
3.275 -0.0500008 0.00109999
3.2875 -0.0500008 0.00109999
3.3 -0.0500008 0.00109999
3.3125 -0.0500008 0.00109999
3.325 -0.0500008 0.00109999
3.3375 -0.0500008 0.00109999
3.35 -0.0500008 0.0011
3.3625 -0.0500008 0.0011
[...]
POINT_DATA 15780
 FIELD attributes 2
p 1 15780 float
-0.0310982 -0.0311142 -0.0311303 -0.0311463 -0.0311623 -0.0311784 -0.0321098 -0.0330336 -0.0339573 -0.0348811 -0.0359015 -0.0369654 -0.0380317 -0.0390981 -0.0401645 -0.0411841 -0.0421676 -0.0431324 -0.0440972 -0.045062 -0.0459751 -0.046873 -0.0477755 -0.0486781 -0.0495806 -0.0504774 -0.051378 -0.0522795 -0.053181 -0.0540825 -0.0549833 -0.0558908 -0.0567988 -0.0577067 -0.0586147 -0.0595221 -0.0604217 -0.0613192 -0.0622167 -0.0631142 -0.0640088 -0.0648879 -0.065765 -0.0666422 -0.0675193 -0.0683944 -0.0692517 -0.0701071 -0.0709624 -0.0718177 -0.072671 -0.0735057 -0.0743377 -0.0751698 -0.0760018 -0.0768315 -0.0776398 -0.0784449 -0.0792501 -0.0800553 -0.0808576 -0.0816357 -0.08241 -0.0831842 -0.0839585 -0.0847292 -0.0854733 -0.0862133 -0.0869532 -0.0876932 -0.0884292 -0.0891366 -0.0898391 -0.0905417 -0.0912442 -0.0919422 -0.0926095 -0.0932716 -0.0939338 -0.094596 -0.0952531 -0.0958776 -0.0964964 -0.0971153 -0.0977341 -0.0983474 -0.0989264 -0.0994996 -0.100073 -0.100646 -0.101213 -0.101746 -0.102272 -0.102798 -0.103324 -0.103845 -0.104329 -0.104807 -0.105284 -0.105762 -0.106234 -0.106668 -0.107094 -0.107521 -0.107948 -0.108367 -0.108748 -0.10912 -0.109493 -0.109866 -0.110231 -0.110556 -0.110873 -0.11119 -0.111507 -0.111816 -0.112084 -0.112345 -0.112605 -0.112865 -0.113117 -0.113328 -0.11353 -0.113733 -0.113936 -0.114131 -0.114283 -0.114427 -0.114571 -0.114715 -0.114851 -0.114944 -0.115029 -0.115115 -0.1152 -0.115278 -0.115314 -0.115343 -0.115371 -0.1154 -0.115421 -0.115403 -0.115378 -0.115352 -0.115327 -0.115294 -0.115224 -0.115146 -0.115068 -0.114991 -0.114906 -0.114783 -0.114653 -0.114524 -0.114394 -0.114257 -0.114083 -0.113902 -0.113721 -0.11354 -0.113352 -0.113128 -0.112897 -0.112667 -0.112436 -0.112199 -0.111929 -0.111652 -0.111375 -0.111098 -0.110815 -0.1105 -0.11018 -0.109859 -0.109538 -0.109211 -0.108855 -0.108492 -0.10813 -0.107767 -0.107398 -0.107001 -0.1066 -0.106198 -0.105796 -0.105388 -0.104955 -0.104517 -0.104078 -0.10364 -0.103196 -0.10273 -0.102259 -0.101789 -0.101318 -0.100843 -0.100349 -0.0998512 -0.0993531 -0.098855 -0.0983528 -0.097834 -0.0973115 -0.0967891 -0.0962666 -0.0957404 -0.0951994 -0.094655 -0.0941107 -0.0935663 -0.0930182 -0.0924573 -0.0918935 -0.0913297 -0.0907659 -0.090199 -0.0896213 -0.0890411 -0.0884609 -0.0878808 -0.0872976 -0.0867062 -0.0861128 -0.0855194 -0.084926 -0.0843303 -0.0837285 -0.0831249 -0.0825214 -0.0819179 -0.0813123 -0.0807026 -0.0800918 -0.079481 -0.0788702 -0.0782579 -0.0776435 -0.0770281 -0.0764127 -0.0757973 -0.0751806 -0.0745636 -0.0739462 -0.0733288 -0.0727114 -0.0720932 -0.0714765 -0.0708595 -0.0702425 -0.0696255 -0.0690079 -0.0683934 -0.067779 -0.0671647 -0.0665504 -0.065936 -0.0653259 -0.0647162 -0.0641065 -0.0634968 -0.0628872 -0.0622833 -0.06168 -0.0610768 -0.0604736 -0.0598709 -0.059275 -0.05868 -0.058085 -0.05749 -0.0568956 -0.0563091 -0.0557238 -0.0551386 -0.0545533 -0.0539691 -0.0533936 -0.0528195 -0.0522454 -0.0516712 -0.0510982 -0.0505348 -0.0499731 -0.0494113 -0.0488495 -0.0482892 -0.0477392 -0.0471908 -0.0466424 -0.0460941 -0.0455472 -0.0450113 -0.0444772 -0.0439432 -0.0434091 -0.0428769 -0.042356 -0.041837 -0.0413181 -0.0407992 -0.040282 -0.0397767 -0.0392735 -0.0387703 -0.0382671 -0.0377658 -0.0372767 -0.0367898 -0.0363028 -0.0358158 -0.0353309 -0.0348582 -0.0343879 -0.0339175 -0.0334472 -0.032979 -0.0325233 -0.0320698 -0.0316163 -0.0311629 -0.0307116 -0.0302728 -0.0298364 -0.0293999 -0.0289635 -0.0285294 -0.0281077 -0.0276884 -0.0272691 -0.0268498 -0.0264328 -0.0260281 -0.0256259 -0.0252237 -0.0248214 -0.0244216 -0.0240341 -0.0236489 -0.0232638 -0.0228787 -0.022496 -0.0221256 -0.0217577 -0.0213898 -0.021022 -0.0206565 -0.0203033 -0.0199526 -0.0196018 -0.0192511 -0.0189027 -0.018566 -0.018232 -0.017898 -0.0175639 -0.0172324 -0.016912 -0.0165941 -0.0162762 -0.0159583 -0.0156429 -0.0153383 -0.015036 -0.0147337 -0.0144314 -0.0141315 -0.0138422 -0.0135551 -0.0132681 -0.012981 -0.0126965 -0.0124222 -0.0121501 -0.011878 -0.0116059 -0.0113361 -0.0110764 -0.010819 -0.0105615 -0.010304 -0.0100488 -0.00980355 -0.00956039 -0.00931724 -0.00907408 -0.00883312 -0.00860165 -0.00837221 -0.00814278 -0.00791334 -0.00768599 -0.00746763 -0.00725138 -0.00703514 -0.00681889 -0.00660472 -0.00639919 -0.00619569 -0.00599219 -0.00578869 -0.00558719 -0.00539397 -0.00520286 -0.00501174 -0.00482063 -0.00463161 -0.00445057 -0.00427163 -0.0040927 -0.00391376 -0.00373687 -0.00356764 -0.00340046 -0.00323328 -0.0030661 -0.00290096 -0.00274291 -0.00258673 -0.00243056 -0.00227438 -0.00212024 -0.00197272 -0.00182674 -0.00168076 -0.00153478 -0.00139057 -0.00125261 -0.00111625 -0.000979893 -0.000843533 -0.000708947 -0.000580271 -0.000453205 -0.000326139 -0.000199072 -7.36512e-05 4.60179e-05 0.000164071 0.000282125 0.000400179 0.000516614 0.000627602 0.000737004 0.000846406 0.000955808 0.00106359 0.00116632 0.00126752 0.00136871 0.0014699 0.0015695 0.00166439 0.00175783 0.00185127 0.0019447 0.00203662 0.00212416 0.00221026 0.00229637 0.00238248 0.00246711 0.00254761 0.00262679 0.00270596 0.00278514 0.00286291 0.00293685 0.00300948 0.0030821 0.00315473 0.00322596 0.00329366 0.00336011 0.00342656 0.00349301 0.00355817 0.00362002 0.00368066 0.0037413 0.00380193 0.00386129 0.00391761 0.00397279 0.00402797 0.00408315 0.00413712 0.00418832 0.00423838 0.00428844 0.00433849 0.00438735 0.00443366 0.00447889 0.00452413 0.00456936 0.00461346 0.00465523 0.00469594 0.00473665 0.00477735 0.00481694 0.0048544 0.00489086 0.00492733 0.0049638 0.00499922 0.00503271 0.00506522 0.00509773 0.00513024 0.00516171 0.00519144 0.00522026 0.00524907 0.00527788 0.00530573 0.005332 0.00535737 0.00538273 0.0054081 0.0054325 0.0054555 0.00547766 0.00549982 0.00552198 0.00554323 0.00556326 0.00558245 0.00560164 0.00562082 0.00563911 0.00565633 0.00567276 0.0056892 0.00570563 0.00572122 0.0057359 0.00574979 0.00576368 0.00577757 0.00579063 0.00580289 0.00581443 0.00582597 0.00583751 0.00584828 0.00585838 0.00586776 0.00587713 0.00588651 0.00589511 0.00590318 0.00591057 0.00591796 0.00592535 0.00593203 0.00593827 0.00594385 0.00594942 0.00595499 0.00595985 0.00596439 0.00596831 0.00597222 0.00597614 0.00597938 0.00598243 0.00598484 0.00598725 0.00598966 0.0059914 0.00599303 0.00599407 0.00599512 0.00599616 0.00599657 0.00599697 0.00599677 0.00599657 0.00599637 0.00599555 0.00599478 0.00599348 0.00599217 0.00599086 0.00598897 0.00598724 0.00598495 0.00598266 0.00598036 0.00597749 0.00597484 0.00597167 0.0059685 0.00596533 0.00596161 0.00595818 0.00595424 0.00595029 0.00594635 0.00594186 0.00593773 0.00593312 0.00592851 0.0059239 0.00591877 0.00591408 0.00590891 0.00590373 0.00589856 0.00589287 0.00588768 0.00588203 0.00587638 0.00587074 0.0058646 0.00585903 0.005853 0.00584697 0.00584094 0.00583442 0.00582853 0.0058222 0.00581586 0.00580953 0.00580274 0.00579663 0.00579008 0.00578353 0.00577698 0.00576997 0.0057637 0.00575701 0.00575032 0.00574363 0.00573651 0.00573016 0.00572341 0.00571665 0.00570989 0.0057027 0.00569635 0.0056896 0.00568285 0.00567609 0.00566892 0.00566264 0.00565596 0.00564928 0.0056426 0.00563551 0.00562936 0.00562281 0.00561627 0.00560972 0.00560278 0.00559682 0.00559048 0.00558413 0.00557779 0.00557105 0.00556535 0.00555926 0.00555317 0.00554709 0.00554061 0.00553522 0.00552944 0.00552367 0.00551789 0.00551175 0.00550672 0.0055013 0.00549589 0.00549047 0.00548468 0.00548005 0.00547503 0.00547002 0.00546501 0.00545963 0.00545543 0.00545084 0.00544625 0.00544166 0.00543669 0.00543291 0.00542874 0.00542457 0.0054204 0.00541586 0.00541247 0.00540866 0.00540484 0.00540103 0.00539682 0.00539362 0.00538997 0.00538633 0.00538268 0.00537862 0.00537521 0.00537129 0.00536737 0.00536345 0.00535904 0.00535413 0.00534841 0.00534268 0.00533695 0.00533043 0.00532165 0.00531244 0.00530323 0.00529402 0.00528432 0.00525819 0.00522653 0.00519488 0.00516322 0.00512668 0.00511519 0.00511784 0.00512049 0.00512314 0.00514876 0.00523235 0.00530839 0.00538775 0.00545071 0.00549632 0.00548929 0.00548545 0.00548161 0.0054778 0.00547626 0.00550313 0.00553081 0.00555848 0.00557815 0.0055991 0.00561303 0.00563187 0.00565074 0.00566962 0.00568394 0.00574682 0.00581183 0.00587683 0.00594184 0.00599834 0.00608977 0.00616587 0.00624196 0.00631806 0.0063232 0.00630856 0.00628918 0.0062698 0.00625041 0.00624053 0.00603967 0.00581811 0.00559654 0.00537498 0.0050476 0.00456761 0.00407373 0.00357985 0.00308596 0.00262187 0.00235211 0.00207481 0.00179751 0.00152021 0.00127287 0.00117428 0.00106926 0.000964235 0.000859214 0.000773572 0.000667661 0.000556194 0.000444727 0.000333258 0.000255274
-0.0319476 -0.0319667 -0.0319858 -0.0320049 -0.032024 -0.0320431 -0.032744 -0.0336216 -0.0344042 -0.0351667 -0.036225 -0.0372617 -0.038252 -0.0392545 -0.0403139 -0.0412979 -0.0422591 -0.0432251 -0.0441657 -0.045101 -0.0460069 -0.046905 -0.047811 -0.0487169 -0.0496221 -0.0505271 -0.0514188 -0.0523226 -0.0532313 -0.054141 -0.0550614 -0.0559665 -0.0568787 -0.0577905 -0.0587 -0.059615 -0.0605164 -0.0614147 -0.0623143 -0.0632142 -0.0641103 -0.0649914 -0.0658714 -0.066751 -0.0676286 -0.0685045 -0.0693627 -0.0702183 -0.0710765 -0.0719353 -0.0727918 -0.0736258 -0.0744612 -0.0752961 -0.0761284 -0.0769621 -0.0777693 -0.0785747 -0.0793824 -0.0801907 -0.0809974 -0.0817731 -0.0825503 -0.0833269 -0.0841013 -0.0848773 -0.0856181 -0.0863581 -0.0871004 -0.0878431 -0.0885855 -0.0892879 -0.089993 -0.0906978 -0.0914004 -0.0921058 -0.0927671 -0.0934293 -0.0940935 -0.0947581 -0.0954239 -0.0960408 -0.0966618 -0.0972825 -0.0979013 -0.098524 -0.0990931 -0.0996661 -0.100241 -0.100816 -0.101395 -0.101914 -0.102442 -0.102969 -0.103495 -0.10403 -0.104502 -0.10498 -0.105458 -0.105937 -0.106421 -0.106844 -0.107271 -0.107698 -0.108124 -0.108555 -0.108925 -0.109298 -0.109671 -0.110043 -0.110419 -0.110734 -0.11105 -0.111366 -0.111683 -0.112001 -0.112261 -0.112521 -0.11278 -0.11304 -0.1133 -0.113502 -0.113704 -0.113906 -0.114109 -0.114311 -0.114455 -0.114599 -0.114743 -0.114886 -0.115029 -0.115112 -0.115198 -0.115283 -0.115368 -0.115455 -0.11548 -0.115508 -0.115537 -0.115566 -0.115599 -0.115567 -0.115541 -0.115515 -0.115489 -0.11547 -0.115385 -0.115307 -0.115228 -0.115148 -0.115075 -0.114939 -0.114806 -0.114674 -0.114544 -0.114416 -0.114229 -0.114048 -0.113864 -0.113679 -0.113499 -0.113263 -0.113029 -0.112796 -0.112565 -0.112335 -0.112054 -0.111776 -0.111496 -0.111216 -0.110939 -0.110615 -0.11029 -0.109966 -0.109645 -0.109325 -0.108959 -0.108597 -0.108232 -0.107866 -0.107503 -0.107099 -0.106695 -0.106292 -0.10589 -0.105486 -0.105046 -0.104607 -0.104167 -0.103727 -0.103289 -0.102812 -0.102339 -0.101867 -0.101396 -0.100927 -0.100422 -0.0999234 -0.0994222 -0.0989206 -0.0984255 -0.0978964 -0.0973702 -0.0968445 -0.0963216 -0.0958013 -0.0952517 -0.094707 -0.0941596 -0.0936117 -0.0930686 -0.0925001 -0.091933 -0.0913665 -0.0908023 -0.0902392 -0.0896546 -0.0890741 -0.0884913 -0.0879079 -0.0873285 -0.0867307 -0.0861343 -0.0855383 -0.0849446 -0.0843519 -0.0837442 -0.0831404 -0.0825344 -0.081928 -0.0813252 -0.0807104 -0.0800968 -0.0794837 -0.0788726 -0.0782625 -0.0776433 -0.0770276 -0.0764101 -0.0757921 -0.0751774 -0.0745564 -0.0739365 -0.0733171 -0.0726994 -0.0720827 -0.0714623 -0.0708451 -0.0702263 -0.0696071 -0.0689909 -0.0683734 -0.0677571 -0.0671411 -0.0665265 -0.065913 -0.0653003 -0.0646905 -0.0640792 -0.0634677 -0.0628588 -0.0622528 -0.0616479 -0.0610433 -0.06044 -0.0598375 -0.0592399 -0.0586447 -0.0580485 -0.057452 -0.0568578 -0.05627 -0.0556834 -0.0550971 -0.0545117 -0.0539273 -0.0533509 -0.0527767 -0.0522016 -0.0516263 -0.051053 -0.0504891 -0.0499263 -0.0493637 -0.0488019 -0.0482409 -0.0476907 -0.0471422 -0.0465932 -0.0460439 -0.0454965 -0.0449606 -0.0444259 -0.0438912 -0.0433572 -0.042824 -0.0423035 -0.0417845 -0.0412651 -0.0407455 -0.0402275 -0.0397228 -0.0392192 -0.0387156 -0.0382124 -0.03771 -0.0372217 -0.0367348 -0.0362475 -0.0357602 -0.0352742 -0.0348026 -0.034332 -0.0338615 -0.0333911 -0.0329217 -0.0324671 -0.0320137 -0.0315601 -0.0311066 -0.030654 -0.0302166 -0.0297802 -0.0293437 -0.0289074 -0.0284719 -0.0280517 -0.0276324 -0.0272132 -0.0267939 -0.0263756 -0.0259726 -0.0255705 -0.0251684 -0.0247662 -0.024365 -0.023979 -0.0235939 -0.0232089 -0.022824 -0.02244 -0.022071 -0.0217033 -0.0213357 -0.0209678 -0.0206012 -0.0202492 -0.0198986 -0.0195481 -0.0191976 -0.0188482 -0.0185128 -0.0181789 -0.017845 -0.0175111 -0.0171784 -0.0168598 -0.016542 -0.0162243 -0.0159065 -0.0155898 -0.0152873 -0.0149854 -0.0146833 -0.0143812 -0.0140794 -0.0137929 -0.0135059 -0.0132192 -0.0129326 -0.0126457 -0.0123744 -0.0121027 -0.011831 -0.0115589 -0.0112867 -0.0110297 -0.0107723 -0.0105152 -0.0102582 -0.0100007 -0.00975795 -0.00951525 -0.00927247 -0.00902936 -0.00878644 -0.00855746 -0.00832811 -0.00809916 -0.00787031 -0.00764096 -0.00742527 -0.00720975 -0.00699412 -0.00677799 -0.00656213 -0.00635904 -0.00615564 -0.00595278 -0.00575003 -0.00554699 -0.005356 -0.00516563 -0.00497514 -0.00478412 -0.00459363 -0.00441448 -0.0042356 -0.00405712 -0.00387873 -0.00370071 -0.0035327 -0.00336576 -0.00319878 -0.00303163 -0.0028653 -0.00270868 -0.00255257 -0.00239656 -0.00224058 -0.00208525 -0.00193955 -0.00179397 -0.00164834 -0.00150247 -0.0013569 -0.00122148 -0.00108525 -0.000949409 -0.000813648 -0.000677126 -0.000551159 -0.000424757 -0.000298255 -0.0001713 -4.40585e-05 7.32144e-05 0.000191183 0.000308711 0.000426142 0.00054431 0.000653129 0.000761983 0.000870925 0.000980258 0.00108961 0.00119032 0.00129145 0.00139222 0.00149292 0.00159399 0.00168699 0.00177996 0.001873 0.00196636 0.00205967 0.00214533 0.00223137 0.00231709 0.00240273 0.0024887 0.00256745 0.00264616 0.00272494 0.00280405 0.00288309 0.00295526 0.00302782 0.00310005 0.00317221 0.0032447 0.00331076 0.00337677 0.00344285 0.00350925 0.00357556 0.0036358 0.00369638 0.00375669 0.00381693 0.00387744 0.00393224 0.00398707 0.00404196 0.00409708 0.00415222 0.00420184 0.00425184 0.0043016 0.00435131 0.00440133 0.00444612 0.004491 0.00453593 0.00458111 0.00462636 0.00466658 0.00470723 0.00474764 0.00478799 0.00482871 0.00486471 0.00490085 0.00493703 0.00497345 0.00500999 0.00504199 0.00507445 0.00510669 0.00513888 0.00517145 0.00519978 0.00522829 0.00525684 0.00528561 0.00531454 0.00533939 0.00536471 0.00538983 0.0054149 0.00544038 0.00546205 0.00548393 0.00550586 0.00552798 0.00555029 0.00556896 0.0055881 0.00560706 0.00562598 0.00564532 0.00566125 0.00567743 0.00569365 0.00571004 0.00572667 0.00574002 0.00575387 0.00576756 0.0057812 0.00579528 0.0058063 0.00581761 0.00582895 0.00584046 0.00585223 0.00586106 0.0058704 0.00587959 0.00588874 0.00589835 0.00590522 0.00591239 0.0059196 0.00592696 0.00593462 0.00593964 0.00594518 0.00595058 0.00595596 0.0059618 0.00596518 0.00596891 0.00597267 0.00597655 0.00598078 0.00598262 0.005985 0.00598726 0.00598949 0.00599222 0.00599271 0.00599358 0.00599448 0.00599549 0.00599688 0.00599609 0.00599587 0.00599553 0.00599517 0.00599532 0.00599343 0.00599197 0.00599054 0.00598921 0.0059883 0.00598543 0.00598312 0.0059807 0.00597826 0.00597634 0.00597261 0.00596929 0.005966 0.00596281 0.00596003 0.00595551 0.00595154 0.00594749 0.00594341 0.00593984 0.00593468 0.00592994 0.00592523 0.0059206 0.0059164 0.00591065 0.00590545 0.00590018 0.00589489 0.00589012 0.00588392 0.00587816 0.00587242 0.00586676 0.00586155 0.00585493 0.00584889 0.00584277 0.00583664 0.00583104 0.00582414 0.00581771 0.0058113 0.00580496 0.00579909 0.00579195 0.00578538 0.00577876 0.00577212 0.00576603 0.00575877 0.005752 0.00574524 0.00573853 0.00573233 0.00572498 0.00571821 0.00571139 0.00570456 0.00569828 0.00569095 0.00568413 0.00567732 0.00567056 0.00566431 0.00565703 0.00565034 0.00564361 0.00563687 0.00563069 0.00562357 0.00561697 0.00561038 0.00560383 0.00559781 0.00559087 0.00558451 0.00557813 0.00557174 0.00556592 0.00555925 0.00555313 0.00554701 0.00554091 0.00553538 0.005529 0.00552322 0.00551743 0.00551162 0.00550641 0.00550041 0.00549499 0.00548956 0.00548414 0.00547932 0.0054737 0.00546869 0.00546368 0.00545867 0.00545427 0.0054491 0.00544455 0.00543999 0.00543541 0.00543147 0.00542671 0.00542255 0.00541846 0.00541439 0.00541093 0.00540656 0.00540296 0.00539933 0.00539554 0.00539255 0.00538838 0.00538479 0.00538156 0.00537841 0.00537584 0.00537151 0.00536869 0.00536569 0.00536191 0.00535963 0.00535429 0.00534904 0.00534604 0.00534358 0.00534114 0.00533209 0.00533035 0.00532743 0.00531948 0.00531844 0.00530411 0.00527954 0.00527502 0.00527524 0.0052645 0.0052216 0.00523316 0.00524353 0.0052488 0.0053169 0.00541035 0.00547391 0.00553747 0.00557544 0.00552913 0.0055099 0.00550286 0.00549581 0.00548831 0.0054923 0.00550984 0.005528 0.00554615 0.00555785 0.0055691 0.00557016 0.00557121 0.00557226 0.00557319 0.00557388 0.00559871 0.00562765 0.00565668 0.00568572 0.00565909 0.00569724 0.00575987 0.00582288 0.00588589 0.00596587 0.00618014 0.00626915 0.0063516 0.0064277 0.00632077 0.00635663 0.00633725 0.00632079 0.00631133 0.00625595 0.0062094 0.00598784 0.00576627 0.00553213 0.00503853 0.00469891 0.00420503 0.00371115 0.00321459 0.00259579 0.00241417 0.00213687 0.00185956 0.00158226 0.00124246 0.00122337 0.00111835 0.00101333 0.000908311 0.000751139 0.000715151 0.000603685 0.00049222 0.000380754 0.000206753