# vtk DataFile Version 2.0
sampleSurface
ASCII
DATASET POLYDATA
POINTS 14144 float
-4 2.4359e-17 0.213991 -5 -7.03332e-17 0.24832 -5 -8.78968e-17 1.19622 -4 0
1.15978 -3 3.30872e-24 1.09917 -3 2.12034e-17 0.618363 -3 6.61744e-24 0.144377
1.00049 2.71051e-19 0.0377466 1.032 0 0.0376088 1.03198 -2.76472e-18 0.00937487 1.00051
0 0.00937499 5 2.37371e-18 0.0807757 5.0625 0 0.0807864 5.0625 -2.32186e-18
0.01875 5 -7.88861e-31 0.01875 6 -4.59957e-19 0.0809059 6.0625 0 0.0809118
6.0625 -1.44624e-18 0.01875 6 -1.97215e-31 0.01875 7 -9.10076e-19 0.0809817 7.0625
0 0.0809867 7.0625 -7.45877e-19 0.01875 7 0 0.01875 8 2.16089e-18
0.0810315 8 0 0.143317 8.125 0 0.152582 8.125 -3.0713e-18 0.0282186
8 -7.88861e-31 0.01875 9 -3.36839e-18 0.322117 9 -7.14776e-18 0.569424 9.5
-1.00974e-28 0.605111 9.5 1.54025e-18 0.112989 9 0 0.075 11 0
0.22013 10 -1.00974e-28 0.144966 10 -1.07672e-17 0.635459 10 0 1.12676
11 0 1.19261 12 0 0.268044 12 0 1.23454 13
0 0.290282 13 -5.04871e-29 1.254 14 -2.52435e-29 0.29776 14 0
1.26054 15 -9.61216e-18 1.26203 15 0 0.299458 -5 -1.05512e-16 2.15667
-4 0 2.11862 -3 0 2.06503 -3 -3.42204e-17 1.58106 -1.00144
3.38813e-21 1.00095 -1.00156 2.6834e-18 1.06317 -0.939104 0 1.06315 -0.939024 0
1.00083 0.00102175 -1.35525e-20 1.00018 0.00157824 -1.3146e-18 1.01503 0.0193806 -5.42101e-20 1.01315
0.0168153 0 1.00027 5 0 1.01287 5 -2.48715e-18 1.07512 5.0625
0 1.07524 5.0625 0 1.01299 6 0 1.01429 6 3.11075e-18
1.07657 6.0625 0 1.07664 6.0625 0 1.01435 7 0 1.01514
7 -1.05712e-18 1.07746 7.0625 0 1.07751 7.0625 0 1.01518 8
-4.76227e-19 1.07803 8 -1.97215e-31 1.14036 8.125 0 1.14821 8.125 -1.57772e-30
1.02371 8 -3.9443e-31 1.0157 9 9.89212e-18 1.312 9 -1.17997e-17 1.55979
9.5 -5.04871e-29 1.59144 9.5 0 1.09792 9 0 1.06435 10
-1.40371e-17 1.61778 10 -1.00974e-28 2.10872 11 0 2.1651 12 -5.04871e-29
2.20103 13 0 2.21771 14 2.52435e-29 2.22332 15 2.88049e-17 2.22459
-5 5.16988e-26 2.5257 -4.99992 -5.07475e-22 3.13073 -4.00007 0 3.09448 -3.00072
6.77626e-21 3.04721 -3.00013 -5.74204e-18 2.55367 -5 0 3.13073 1.00096 2.71051e-20
2.00453 1.00095 -5.55654e-18 2.06706 1.06354 0 2.06709 1.06354 -2.71051e-20 2.00457
4.0625 0 2.06715 4.05722 0 2.07057 4.0625 0 2.07058 5
-3.9443e-31 2.01012 5 2.08749e-18 2.07242 5.0625 0 2.07251 5.0625 0
2.0102 6 0 2.01137 6 -2.47753e-18 2.0737 6.0625 -9.86076e-32 2.07378
6.0625 0 2.01144 7 -1.2326e-32 2.01243 7 2.62598e-18 2.07479 7.0625
0 2.07485 7.0625 0 2.01249 8 1.04356e-18 2.08227 8 1.97215e-31
2.14458 8.125 0 2.14473 8.125 0 2.02011 8 0 2.01997
9 6.90882e-18 2.30391 9 -3.1382e-18 2.55156 9.5 -1.00974e-28 2.57778 9.5
0 2.08482 9 -2.52435e-29 2.05574 10 -1.30369e-17 2.59966 10 0
3.0906 11 0 3.13758 12 0 3.16753 13 0 3.18143
14 0 3.1861 15 2.34283e-17 3.18716 -5 0 3.13082 -5
-2.8246e-17 4.11557 -4.00039 0 4.08378 -3.0018 -5.42101e-20 4.04421 -3.00113 -5.96311e-18
3.54412 -2 0 3.5 -2 -5.16988e-26 3.28376 -2 0 3.5
1.25056 1.35525e-20 3.00462 1.15858 0 3.00379 1.14482 0 3.25366 1.25048
-1.35525e-20 3.25461 3 0 3 3 -1.28799e-17 3.25 3.25 0
3.25 3.25 0 3 4 0 3 4 -1.89592e-18 3.25
4.00002 0 3.25 4 1.29247e-26 3 5 3.23117e-27 3.00777 5
4.56496e-18 3.25741 5.25 0 3.25778 5.25 3.23117e-27 3.00815 6 8.07794e-28
3.00926 6 -8.18032e-18 3.25887 6.25 0 3.2592 6.25 0 3.00959
7 4.03897e-28 3.0105 7 -1.44313e-18 3.26012 7.25 0 3.26039 7.25
0 3.01077 8 0 3.01729 8 9.51297e-18 3.26675 8.25 -1.00974e-28
3.28251 8.25 0 3.03422 9 -1.13316e-17 3.54219 9.5 2.01948e-28 3.56373
9.5 0 3.07075 9 0 3.04688 10 1.44621e-17 3.58154 10
0 4.07248 11 0 4.11006 12 0 4.13402 13 0
4.14514 14 0 4.14888 15 -2.58351e-17 4.14973 -5 7.05274e-17 5.09312
-3.99993 0 5.08025 -3.00007 2.1684e-19 5.04778 -2.00009 1.35525e-20 5.00153 -2.00038
-3.91939e-17 4.50134 -2.00045 0 4.00114 -2.50021 -5.28549e-18 4.00124 2.00133 2.71051e-20
4.00354 2.001 2.18196e-17 4.50355 2.5 2.06795e-25 4.5 2.5 0 4
3 0 4 3 -3.80475e-17 4.5 3.5 1.03398e-25 4.5 3.5
0 4 4 -1.03398e-25 4 4 -4.06264e-17 4.5 4.5 0
4.5 4.5 -5.16988e-26 4.49997 4.00003 1.03398e-25 4 6 1.29247e-26 4.00805
6 0 4.00873 6.49942 -6.72084e-25 4.50825 6.5 0 4.50825 6.5
0 4.00867 7 0 4.00923 7 -1.07652e-17 4.5082 7.5 0
4.50825 7.5 0 4.00941 8 0 4.01411 8 8.79829e-18 4.51234
8.5 0 4.52411 8.5 0 4.0275 9.5 -4.03897e-28 4.05671 9
0 4.0375 9 -1.14067e-17 4.53281 9 0 5.04224 10 0
5.05436 11 -4.03897e-28 5.08255 12 0 5.10052 13 -1.00974e-28 5.10886
14 0 5.11166 15 -5.02169e-17 5.1123 -5 5.94956e-18 6.06208 -3.9997
-1.0842e-19 6.05349 -2.99997 -1.35525e-20 6.0012 -1.99997 0 6.00128 -0.999976 5.33156e-17
5.00167 -1.50007 -1.58565e-17 5.00158 -0.999953 0 6.00136 6.79777e-05 -7.72494e-18 5.00191
-0.49994 -3.70797e-17 5.00179 5.0325e-05 0 6.0014 1.00008 2.57769e-17 5.00203 0.500073
-1.10318e-17 5.00204 1.00007 0 6.0014 2.0004 -1.35525e-20 5.74227 1.69151 -1.35525e-20
5.00239 1.50013 -4.32868e-17 5.00186 2.00025 0 6.00134 2.99998 9.42159e-22 6
6.00005 5.29396e-23 5.00703 5.50018 2.11758e-22 5.00709 5.38228 2.11758e-22 5.00695 6.00006
0 5.03909 7 0 5.00703 6.5 -2.46811e-17 5.00709 6.96544 -7.41154e-22
6.00469 7.00005 -5.29396e-23 6.00469 8 2.81435e-24 5.02081 7.49917 1.22785e-25 5.00709
8.00001 -6.61744e-24 6.01366 8.99969 3.26672e-24 6.02817 2.00083 -2.71051e-20 5.00325 3
2.06795e-25 6 3 -1.58161e-18 5 2.5 0 5 4 0
6 4 -3.39991e-17 5 3.5 1.03398e-25 5 5.0014 0 5.00651
4.5 0 5 5 5.16988e-26 6 6.00046 0 6.00466 8
0 5.02048 7.5 0 5.00709 8.5 0 5.02072 9 3.23117e-27
6.02817 10 -1.61559e-27 6.03624 11 8.07794e-28 6.05503 12 -4.03897e-28 6.06701
13 0 6.07257 14 0 6.07444 15 3.70132e-17 6.07486 -5
-3.24312e-17 7.03104 -3.99982 0 7.02674 -2.99998 0 7.00061 -1.99998 6.77626e-21
7.00065 -0.999976 0 7.00068 2.48667e-05 6.77626e-21 7.0007 1.00003 -6.77626e-21 7.0007
2.00006 -6.77626e-21 7.00068 2.60139 0 7.00101 7.00005 0 6.16302 7.98805
3.30872e-24 7.00678 8 0 7.00683 8.99921 0 7.01409 3.00043 0
7.00122 4 0 7 5 0 7 6.00035 -6.77626e-21 7.00232
7.00003 0 7.00234 9 0 7.01409 10 0 7.01812 11
0 7.02752 12 0 7.03351 13 0 7.03629 14 0
7.03722 15 2.98328e-17 7.03743 -4 -7.90671e-21 8 -5 -1.84332e-21 7.99999
-3 6.79012e-22 7.99999 -2 8.81361e-22 7.99999 -1 -2.28726e-21 7.99999 7.32374e-09
8.87565e-22 7.99999 1 2.82544e-21 7.99998 2 2.41806e-21 7.99998 8 -1.70606e-24
7.99828 -4 0 8 -5 -5.16988e-26 8 -3 0 8
-2 -1.03398e-25 8 -1 0 8 6.95393e-09 0 8 1
0 8 2 0 8 3 -1.03398e-25 8 4 0
8 5 0 8 6 0 8 7 0 8
8 6.46235e-27 8 9 0 8 10 0 8 11
8.07794e-28 8 12 4.03897e-28 8 13 0 8 14 0
8 15 -5.04871e-29 8 -0.999964 1.05879e-22 0.01875 -0.999962 2.11758e-22 0.0792239
-0.937452 -2.11758e-22 0.0789879 -0.937452 -7.67624e-19 0.01875 -0.0102783 0 0.985301 -0.0157641
-6.77626e-21 0.985342 -0.0153844 0 0.990908 1.99923 1.13841e-18 0.0752478 1.99924 0
0.0183062 1.93651 -3.82181e-18 0.01719 1.93651 -1.35525e-20 0.072745 1.93761 -1.36881e-18 1.0004
2.00009 0 1.00025 2.00004 0 0.937788 1.93753 -2.71051e-20 0.937954 -0.93899
-3.38813e-21 0.938435 -1.00144 1.69407e-21 0.938476 0.000497998 -7.04731e-19 0.985218 -0.0147548 -6.77626e-21
1.00012 0.969069 -2.98156e-18 0.009375 0.969041 2.71051e-20 0.0378507 0.0157615 0 0.986027
-0.00102467 -2.20906e-18 1.93926 -0.000889311 0 2.00183 0.0617038 0 2.00198 0.0615898
0 1.93943 2.00014 3.97089e-18 1.06267 1.93771 0 1.06275 2 0
1.99999 2 -1.05879e-22 1.93749 1.9375 0 1.93749 1.9375 1.8036e-18 1.99999
1.00094 -4.03865e-18 1.94198 0.9383 0 1.94194 0.93837 1.35525e-20 2.00449 1.06352
0 1.94204 2.06193 -1.35525e-20 0.0765379 2.06193 -4.68917e-18 0.0186528 3 -1.81039e-18
0.0799561 3 1.32349e-23 0.01875 2.9375 1.22555e-18 0.01875 2.9375 0 0.079892
2.06256 -6.77626e-21 1.00015 2.06253 -6.77626e-21 0.937681 2.9375 -2.42535e-18 1.00249 3
0 1.00322 3 -6.61744e-24 0.941243 2.9375 0 0.940625 0.50047 6.77626e-21
0.027037 0.50044 -6.77626e-21 0.00937499 0.469159 0 0.00937489 0.469163 0 0.011084
-0.0309658 0 1.00178 -0.0288823 0 1.00037 -0.0311024 1.69407e-21 1.0004 -1
2.65061e-18 1.9375 -1 0 2 -0.9375 -8.27181e-25 2 -0.9375 0
1.9375 -0.0635166 5.74627e-18 2.00167 -0.0635912 0 1.93911 2.06259 0 1.06261
3 -3.76144e-18 1.06544 2.93751 -1.32349e-23 1.06468 2.0625 0 2 2.0625
5.29396e-23 1.93749 3 0 2 3 0 1.9375 2.9375 2.06795e-25
1.9375 2.9375 -5.82667e-18 2 -0.0282619 0 1.029 0.00353532 0 1.02858
0.000751005 5.29396e-23 1.43704 0.00111654 0 1.43671 0.000760055 0 1.43671 0.000285858
2.71051e-20 0.498141 0.000156034 0 0.484128 -0.0155977 0 0.48402 -0.0152721 7.86047e-19
0.496509 -0.501601 -3.38813e-21 0.500645 -0.439154 -6.77626e-21 0.500755 -0.439077 -1.35525e-20 0.469314
-0.439023 1.35525e-20 0.437969 -0.501413 1.86347e-18 0.43787 -0.501826 0 1.00057 -0.439211
0 1.00054 -0.439163 -3.38813e-21 0.937938 -0.501777 3.66935e-18 0.937998 -0.501723 1.69407e-21
0.563398 -0.439157 -3.38813e-21 0.563487 0.500489 -3.38813e-21 0.0380538 0.469222 6.77626e-21 0.038325
0.0160838 -1.6263e-18 0.498552 0.0160288 5.42101e-20 0.483976 0.486228 0 0.487123 0.491214
-1.0842e-19 0.502479 0.492708 5.42101e-20 0.504765 0.50055 0 0.496218 0.507957 0
0.037948 1.00164 0 0.502496 1.00002 -1.0842e-19 0.486158 0.981588 -5.42101e-20 0.484933
0.982133 1.0842e-19 0.488709 0.988978 0 0.498108 0.500602 0 0.984593 0.500842
1.35525e-20 0.98278 0.493365 -1.35525e-20 0.983045 0.510209 0 0.999714 0.515104 -5.42101e-20
0.998796 0.51601 1.35525e-20 0.981869 1.01493 0 0.501977 1.01456 0 0.487268
1.93852 7.96889e-18 0.50049 2.00137 -1.35525e-20 0.500497 2.00112 -1.35525e-20 0.437781 1.93848
0 0.437755 1.00241 1.0842e-18 0.515574 1.01421 5.42101e-20 0.514355 1.967 1.69407e-21
0.563175 2.00134 0 0.549347 1.93851 0 0.563152 -0.499479 1.21973e-19 0.0738711
-0.43682 -1.69407e-21 0.0700973 -0.436806 -1.79793e-18 0.0140688 -0.499477 2.11758e-22 0.0169442 0.531691
2.24972e-18 0.009375 0.531738 0 0.0376102 0.982897 1.0842e-19 0.495945 0.485506 0
0.983329 0.485307 -8.13152e-19 1.0033 0.498394 0 1.00212 2.00133 -3.38813e-21 0.563203
-0.00096927 0 1.5006 0.0614961 0 1.50042 0.061972 0 1.43772 0.500021
-2.71051e-20 1.50241 0.499988 0 1.47142 0.46837 0 1.47148 0.468409 -3.52366e-19
1.50251 0.504906 0 1.01011 0.511229 -1.0842e-19 1.01789 0.531565 0 1.50217
[...]
POINT_DATA 14144
FIELD attributes 1
U 3 14144 float
19.9819 0.000361901 0.00487639 20 0 0 20 0 0 19.986 0.000350074
0.0146985 19.9492 0.000783206 0.038002 19.9327 0.000796487 0.0244541 19.9349 0.000755343 0.00936674
18.9428 0.284603 0.553122 18.4726 0.326905 0.555272 18.6867 0.393006 0.17239 19.1601
0.357592 0.170098 11.1758 -1.72435 -0.76793 11.2469 -1.69956 -0.758422 11.1629 -2.03954
-0.331157 11.0702 -2.04354 -0.335764 12.1438 -1.2799 -0.665691 12.1964 -1.25191 -0.66174
12.2714 -1.75965 -0.283684 12.2172 -1.78482 -0.2857 12.9291 -0.866066 -0.611414 12.9753
-0.843097 -0.608761 12.9924 -1.32559 -0.256112 12.9522 -1.35262 -0.257656 13.6252 -0.54183
-0.577165 14.1152 -0.0400111 -0.890372 14.2974 0.0270116 -0.871725 13.6573 -0.714334 -0.353155
13.5583 -0.906847 -0.260752 16.1063 0.250997 -0.820739 17.5741 -0.0723908 -0.714491 17.5962
-0.0644496 -0.418309 15.4678 0.10926 -0.335066 14.6859 -0.0528201 -0.446996 18.2814 0.0209851
-0.0871312 16.3874 0.0984104 -0.276913 17.934 -0.0617955 -0.375903 19.3678 -0.101044 -0.23152
19.5212 -0.0193381 -0.0828225 18.3914 0.0119777 -0.0706696 19.5663 -0.0194814 -0.0601873 18.4578
0.00917045 -0.0593858 19.5956 -0.0192366 -0.0465273 18.4925 0.00826512 -0.0533457 19.6091 -0.0190668
-0.0409387 19.6152 -0.0189624 -0.0390278 18.4707 0.0105612 -0.0501726 20 0 0
19.9933 0.000330366 0.0212804 19.9768 0.00076257 0.0523429 19.9605 0.000825303 0.0526947 19.3958
0.00286224 0.343055 19.4233 0.00351082 0.36509 19.3728 0.00371642 0.39687 19.3313 0.00306151
0.378983 13.1606 0.376882 8.22393 13.8406 0.331631 7.94749 13.5932 0.409313 8.72542
12.8411 0.466395 9.18212 18.706 -0.309758 -1.32542 19.1275 -0.0629812 -1.12977 19.136
-0.0623195 -1.11272 18.7217 -0.305729 -1.30425 18.9043 -0.25955 -1.0593 19.2328 -0.0582974
-0.91571 19.2377 -0.0583679 -0.905472 18.9138 -0.257093 -1.04667 19.0221 -0.222041 -0.895953
19.2898 -0.0555025 -0.782182 19.2923 -0.0552207 -0.775654 19.0278 -0.219801 -0.888128 19.3164
-0.0616624 -0.697847 19.5527 0.0296814 -0.5848 19.5287 0.0105981 -0.54934 19.0475 -0.19278
-0.72554 19.0775 -0.202328 -0.781651 19.7931 0.0306074 -0.291714 20.0389 0.0384493 -0.152418
19.9547 0.0218977 -0.13963 19.2737 -0.146152 -0.274359 19.1605 -0.169361 -0.434975 19.9698
0.0174682 -0.123138 20.0683 0.0144377 -0.0530301 20.0453 0.00708663 -0.0314082 20.0477 0.00622241
-0.0188251 20.0498 0.00596993 -0.0129495 20.051 0.00585273 -0.0114733 20.0514 0.00585039 -0.0110855
20 0 0 20 2.4092e-08 1.73268e-06 19.999 0.000286706 0.0206219 19.9968
0.0006599 0.0470845 19.9881 0.000768288 0.0547761 20 0 0 20.6468 0.0375461
0.0778254 20.5909 0.0322486 0.0887826 20.5835 0.0332346 0.0389802 20.6367 0.0387827 0.0209759
20.0749 0.0278542 -0.154211 20.0751 0.0277014 -0.15395 20.075 0.0276894 -0.153615 20.076
0.0280466 -0.117395 20.0761 0.0254527 -0.109758 20.0764 0.0252844 -0.107693 20.0764 0.0278524
-0.115202 20.0822 0.0248052 -0.0911428 20.0812 0.0226467 -0.0849304 20.0815 0.0224546 -0.0838602
20.0826 0.0245862 -0.0900142 20.0869 0.0215751 -0.0783602 20.0854 0.01987 -0.0727953 20.0856
0.0197082 -0.0723593 20.0871 0.0213872 -0.0779042 20.0862 0.0178416 -0.0681866 20.0847 0.0165912
-0.0634184 20.0847 0.0165125 -0.0632094 20.0882 0.0190409 -0.0734147 20.0881 0.0191794 -0.0736684
20.0795 0.013904 -0.0508694 20.0763 0.0112484 -0.0393376 20.0747 0.0111965 -0.0375396 20.0825
0.0167721 -0.0597353 20.0854 0.0176519 -0.0662319 20.0733 0.010609 -0.033198 20.0668 0.00754589
-0.0212139 20.0633 0.006464 -0.0140295 20.0616 0.00639506 -0.00959879 20.0613 0.00648493 -0.00727519
20.062 0.00660967 -0.00640137 20.0626 0.00664393 -0.0060548 20 0 0 20
0 0 20.0015 0.000232854 0.0161775 20.0057 0.000513366 0.0350902 20.0026 0.00061149
0.0433578 20.0094 0.00107575 0.0725117 20.0042 0.00116247 0.0804888 20.0094 0.00107575 0.0725115
20.2213 0.00801538 0.0384607 20.2203 0.0078105 0.0524687 20.1839 0.00609395 0.0498474 20.1855
0.00627249 0.0383188 20.1271 0.00962612 -0.0774277 20.1211 0.00770055 -0.0578425 20.112 0.0077591
-0.0586746 20.1162 0.00966472 -0.0764741 20.0942 0.00963256 -0.0666153 20.0925 0.00780669 -0.0540243
20.0925 0.00780669 -0.0540241 20.0942 0.00963255 -0.0666152 20.0812 0.0093852 -0.0511265 20.0794
0.00767377 -0.0431795 20.0776 0.00762795 -0.0407114 20.0795 0.00931309 -0.0478883 20.0765 0.00906695
-0.04 20.0739 0.00746321 -0.034396 20.0731 0.00740248 -0.032692 20.0759 0.00897857 -0.0379378
20.0745 0.0087024 -0.0332244 20.0712 0.00721415 -0.0286353 20.0706 0.00715194 -0.0275854 20.0741
0.00860906 -0.0320451 20.0726 0.00831718 -0.029155 20.0689 0.00695116 -0.0249087 20.0682 0.00687825
-0.0240381 20.072 0.00822601 -0.0282568 20.0625 0.00575291 -0.0188358 20.0612 0.00576 -0.0175897
20.0685 0.00795027 -0.0240873 20.07 0.00800343 -0.0257315 20.06 0.00560788 -0.0161551 20.0526
0.00415946 -0.0120529 20.0502 0.00400461 -0.00974565 20.0485 0.00384429 -0.00753754 20.0478 0.00370514
-0.00569967 20.0478 0.00360729 -0.00460747 20.0479 0.00356231 -0.00416056 20 0 0
20.002 0.000187517 0.011085 20.0073 0.000397137 0.0228199 20.0178 0.000670673 0.0351073 20.0187
0.000793089 0.0453661 20.0152 0.000911449 0.0572081 20.0087 0.000716875 0.0479181 20.1158 0.0039543
-0.000697849 20.0943 0.00293472 0.00436733 20.0907 0.00312662 -0.00609517 20.1079 0.00420355 -0.0151353
20.0984 0.00437602 -0.0236224 20.0851 0.00326905 -0.0129553 20.0791 0.00337633 -0.0169974 20.0894
0.00449485 -0.0276808 20.0818 0.00456162 -0.0286906 20.0736 0.00344749 -0.0188096 20.0687 0.0034888
-0.0193193 20.0687 0.00348886 -0.0193198 20.0818 0.00456162 -0.0286906 20.0647 0.00453788 -0.0227394
20.0646 0.00453647 -0.0227318 20.0565 0.00347456 -0.0160644 20.0565 0.00347454 -0.0160632 20.0625
0.00449937 -0.0209995 20.0607 0.00445648 -0.0194469 20.0546 0.00345117 -0.0150067 20.053 0.00342473
-0.014 20.0592 0.00441647 -0.0180931 20.0577 0.00436282 -0.0168283 20.0514 0.00338955 -0.0129993
20.05 0.00337174 -0.0120107 20.0563 0.00432745 -0.0156567 20.055 0.00441474 -0.0139825 20.0553
0.00431729 -0.0146729 20.0488 0.00332015 -0.0110725 20.0435 0.0026679 -0.00864967 20.0413 0.00262275
-0.0075963 20.0392 0.00257472 -0.00624152 20.0376 0.00252597 -0.00479627 20.0365 0.00250738 -0.00360948
20.0359 0.00251915 -0.00298209 20.0355 0.00252976 -0.00275345 20 0 0 20.0019
0.000153906 0.00676879 20.0066 0.00032044 0.0136742 20.0151 0.000514601 0.0194163 20.0346 0.00101841
0.0427464 20.0258 0.00085755 0.0420059 20.0269 0.000739282 0.0222181 20.0553 0.00143517 0.0401726
20.0458 0.00125502 0.0453095 20.04 0.000989766 0.0206041 20.0729 0.00188725 0.0254245 20.0673
0.00171941 0.0360402 20.0511 0.00125301 0.0140411 20.0624 0.00169926 0.00557958 20.0795 0.0022122
0.0126984 20.08 0.00216991 0.0165562 20.0568 0.0014955 0.00526982 20.0568 0.00167523 -0.00151214
20.0538 0.00278786 -0.0128657 20.057 0.00288367 -0.0138489 20.0575 0.00285826 -0.0137368 20.0535
0.00275916 -0.0126854 20.0498 0.00276941 -0.0116456 20.0524 0.00287294 -0.0127398 20.0417 0.00190555
-0.00692655 20.0416 0.00190594 -0.00691474 20.0466 0.00272823 -0.0102278 20.0488 0.0028403 -0.0112835
20.0386 0.00190011 -0.00626374 20.0359 0.00189003 -0.00552017 20.0786 0.00228028 0.00646329 20.0568
0.00167523 -0.00151229 20.0742 0.00255028 -0.00633343 20.0794 0.00252375 -0.00145633 20.0534 0.00179122
-0.00526209 20.0664 0.00270966 -0.0119529 20.0717 0.00274004 -0.0106683 20.0591 0.00277617 -0.0133747
20.0634 0.00285321 -0.013785 20.0491 0.00186169 -0.00694696 20.045 0.00189481 -0.00725584 20.0466
0.0027285 -0.0102292 20.0488 0.00284042 -0.0112829 20.0457 0.0027916 -0.00967701 20.0359 0.00189002
-0.00551994 20.0336 0.0018792 -0.00473187 20.0316 0.00186075 -0.00393541 20.03 0.00184009 -0.00316163
20.0288 0.00182621 -0.00256036 20.0278 0.00181468 -0.00222688 20.0272 0.00180561 -0.00208156 20
0 0 20.0018 0.000133365 0.00320717 20.0058 0.000273735 0.00631186 20.013 0.000431526
0.00880495 20.0224 0.000605345 0.01011 20.0326 0.000795376 0.00949019 20.0414 0.000991249 0.00676898
20.0467 0.00117817 0.00286942 20.0473 0.00126247 0.000949137 20.0409 0.00184644 -0.00632381 20.034
0.00153491 -0.00294069 20.034 0.00153496 -0.00293765 20.0315 0.00153184 -0.00262532 20.0478 0.00131839
-0.000325152 20.0461 0.00140889 -0.00212529 20.0432 0.00147475 -0.00302837 20.0399 0.00151281 -0.00327401
20.0369 0.00153105 -0.0031912 20.0314 0.00153184 -0.00262508 20.0292 0.00152471 -0.00228776 20.0273
0.00151433 -0.00194421 20.0256 0.00150208 -0.00160694 20.0244 0.00149177 -0.00133159 20.0232 0.0014835
-0.00115975 20.0224 0.00147822 -0.00108114 20.0017 0.000126886 2.95095e-09 20.0003 3.19187e-05 0
20.0056 0.000258952 7.61272e-08 20.0123 0.000405232 1.00353e-07 20.021 0.000563542 1.33062e-07 20.0303
0.000735945 1.41176e-07 20.0385 0.000912363 1.07755e-07 20.0436 0.00108741 5.72818e-08 20.0325 0.00141635
-5.09651e-06 20.0017 0.000126886 0 20.0003 3.19189e-05 0 20.0056 0.000258952 0
20.0123 0.000405231 0 20.021 0.000563541 0 20.0303 0.000735944 0 20.0385
0.000912362 0 20.0436 0.00108741 0 20.045 0.0012155 0 20.0437 0.00129185
0 20.0413 0.00135369 0 20.0383 0.0013911 0 20.0353 0.00141006 0
20.0325 0.00141615 0 20.03 0.00141507 0 20.0278 0.0014097 0 20.0259
0.00140238 0 20.0242 0.00139346 0 20.023 0.00138565 0 20.0217 0.00137854
0 20.0209 0.00137377 -0.000319161 19.2164 -0.00524066 0.00464905 19.1696 -0.00525462 0.0187759
19.0972 -0.00695114 0.0207544 19.1407 -0.00710697 0.00599184 12.6686 0.376321 8.07042 12.7984
0.34792 7.79452 13.0188 0.335353 7.69382 1.95557 1.26436 0.52864 9.82441 1.33561
0.587419 10.6663 1.2911 0.614226 2.53884 1.39161 0.761475 11.7517 0.104479 -3.64091
12.9295 0.0765041 -4.0807 8.01338 -0.509908 -2.04921 6.48877 -0.790423 -1.08212 19.2926
0.00240315 0.358665 19.3524 0.00227611 0.329509 12.4141 0.432718 8.61183 13.3839 0.314267
7.52689 19.5242 0.32713 0.170321 19.2984 0.24994 0.557867 11.9482 0.544536 9.67288
20.1107 0.0150471 0.783635 20.1259 0.0136604 0.701962 20.1707 0.0148018 0.712885 20.1618
0.016403 0.799657 16.2568 -0.194242 -4.46348 15.9044 -0.24317 -4.52233 20.285 0.037046
-0.363631 20.2874 0.0420144 -0.414207 20.3116 0.0423985 -0.414018 20.307 0.0373422 -0.361696
20.7105 0.0442361 0.0613533 20.7193 0.0423999 0.13024 20.6528 0.0361175 0.137545 20.6966
0.0457853 -0.00368134 1.62384 1.06417 0.214945 9.20043 1.33441 0.481037 5.63853 -1.13901
-1.43307 5.33482 -0.0422771 -0.552918 5.19019 0.118155 -0.505739 5.24947 -1.02917 -1.42563
13.9088 -0.0178349 -4.31312 9.47441 -0.366172 -2.80141 17.4548 -0.669438 -2.98996 17.5385
-0.655687 -2.88656 16.635 -0.980362 -3.12848 16.5357 -0.985281 -3.23533 20.1898 -0.0245846
0.838838 20.5034 0.0732244 0.350326 20.2668 0.0248778 0.377492 20.2335 0.0151287 0.428162
13.8433 0.255865 6.78104 13.7376 0.265367 6.90433 13.7932 0.257729 6.80651 19.8659
0.00388759 0.327207 19.8843 0.00374728 0.311401 19.8835 0.004017 0.330635 19.8637 0.0041333
0.344598 20.0852 0.0125703 0.685758 20.065 0.0137681 0.761622 16.5478 -0.185257 -4.35943
18.3546 -0.232969 -2.45433 18.2839 -0.24484 -2.54697 20.2643 0.0367933 -0.363516 20.2648
0.041696 -0.41218 20.1019 0.0342411 -0.265642 20.0964 0.0385228 -0.2892 20.1009 0.0387796
-0.297986 20.1066 0.0344448 -0.2733 14.8335 0.217131 6.27744 14.4856 0.2931 7.4565
19.4333 0.0462199 2.22148 19.4328 0.0463239 2.2244 19.4323 0.0462631 2.22306 0
0 0 1.71636 1.05004 -0.358439 -0.109729 0.348266 -0.375258 0 0
0 17.7313 -0.0402235 0.388149 17.23 -0.0619414 0.523094 17.061 -0.076635 0.525385
16.9777 -0.0876257 0.476767 17.615 -0.0540706 0.321426 18.4269 0.0120278 0.922008 18.1593
0.0165109 1.09549 17.9632 0.0152067 1.00451 18.2804 0.0105643 0.851643 17.8315 -0.0276266
0.427337 17.4218 -0.0401264 0.54097 19.9947 -0.0852099 1.14281 19.7053 -0.139474 1.23416
0.163405 0.0640118 -0.0194422 3.83067 1.62772 -0.453097 0.218928 -0.2118 -0.138498 0
0 0 0 0 0 0.196716 0.0517829 -0.230354 20.0489 -0.0749065
1.12452 0 0 0 0.573857 2.01499 0.344741 0.423954 1.93401 0.271079
0.282544 1.28892 0.180661 0 0 0 2.94081 1.29623 0.464551 3.24707
1.43382 0.50912 3.29324 1.63854 -0.0101905 3.40383 1.75606 0.848588 4.77064 2.46319
1.17155 3.36941 1.36989 0.659142 0.531481 1.66098 0.251322 0.610501 1.72566 0.39139
7.64585 1.63294 -3.72762 8.33066 1.97762 -3.75925 6.02004 0.0567906 -3.55673 5.13144
-0.252954 -3.42398 0 0 0 0.19616 0.727544 -0.0447969 9.74654 3.07848
-3.74413 9.60451 2.8957 -3.75447 9.5649 3.01416 -3.73673 17.9355 -0.070427 -0.11083
17.5828 -0.101708 -0.242425 17.7251 -0.098881 -0.094865 18.0187 -0.0690098 -0.0410026 20.6848
0.112468 0.327474 20.2234 -0.0411845 1.06291 0 0 0 3.3518 1.85842
-0.567187 10.391 3.54315 -3.02575 0 0 0 9.96491 3.15575 -3.7525
19.6301 0.0380622 1.92188 19.7297 0.0453857 2.09535 19.5225 0.056654 2.45312 22.0398
0.0620646 1.55186 22.4305 -0.0478257 1.5725 22.3362 -0.0136719 2.15283 22.0013 0.0648701
1.99861 0.0656473 0.2304 -0.542014 0.0830878 0.402452 -1.0938 22.1078 0.0817146 1.16555
22.3813 -0.0606149 1.03412 9.44792 -2.61812 -2.9925 10.1206 -2.51804 -2.73551 9.26521
-2.81259 -1.58336 20.2048 0.11904 -1.09805 20.1463 0.132293 -1.28033 20.19 0.132826
-1.33487 20.2474 0.119977 -1.13784 20.7355 0.201065 -1.56496 20.7348 0.168409 -1.2443
20.6498 0.155428 -1.25669 20.6366 0.180665 -1.55955 21.7389 0.264046 -1.05061 21.9189
0.210979 -0.765619 21.6542 0.169956 -0.391327 21.5394 0.199998 -0.622603 9.3932 -2.62624
-3.01339 7.47182 -3.14619 -0.634025 6.94914 -3.5887 -0.843278 16.6162 -0.0481732 0.732153
15.8907 -0.00706011 0.770797 15.8739 -0.170666 2.38836 16.3449 -0.177961 2.10423 12.7789
0.380378 -2.9651 13.5023 0.417359 -1.85692 13.8707 0.564603 -1.15244 13.9333 0.693989
-0.852189 12.8443 0.640192 -2.28056 12.1642 0.518568 -3.72306 18.4278 0.0883003 3.51161
18.4835 0.120073 4.0141 17.9245 0.155012 4.99095 17.8432 0.217498 4.67321 17.8589
0.120155 4.24589 16.9903 0.473776 5.1037 17.7693 0.341118 5.2351 17.8702 0.311897
5.03939 17.1265 0.43643 5.24521 6.4995 -3.88006 -0.969219 8.72183 -2.65801 -3.21742
21.4045 0.219571 -0.796156 21.5343 0.29697 -1.2345 16.7706 -0.293029 -0.477998 16.2877
-0.311399 -1.43537 16.0701 -0.344712 -1.8869 15.9809 -0.383375 -2.15751 16.4353 -0.367254
-1.22188 16.7171 -0.345336 -0.564412 16.8304 0.049383 2.13696 16.1208 0.0743411 2.87333
15.1316 0.0865719 2.69138 16.2114 0.0539334 1.96056 -0.28899 -0.645739 0.870465 -0.506525
-0.669448 0.281509 -0.000746309 -0.520616 0.11947 0.676158 -0.404214 -0.0735745 0.704765 -0.497173
0.187609 0.551708 -0.644603 0.327703 0.147773 -0.362218 -1.45824 0.433773 -0.79033 4.5001
1.44703 -0.793958 5.08838 1.45464 -0.391606 -1.83636 13.1855 0.290829 -2.4647 -0.607633
0.55241 1.16405 -0.780859 -0.013692 0.321104 -0.773144 -0.623034 0.28476 -0.741835 0.0562717
-0.178793 -1.08051 -0.228409 -0.356569 -1.57409 -0.673482 -0.446946 -1.33275 -0.574963 -0.285621
15.5311 0.0304671 0.508935 15.3497 0.049319 0.975019 13.4746 0.0969677 1.02568 13.3202
0.0938879 0.283964 14.0417 0.0685882 -0.0962499 20.3716 0.097353 0.769511 20.2896 0.113137
0.71426 20.5938 0.230354 0.225653 20.6921 0.22131 0.243031 18.6277 0.189594 8.36516
16.6524 0.00455586 8.89325 16.798 0.216604 8.54878 18.4688 0.533001 7.96751 -1.05944
-0.770174 4.52024 -1.97169 -0.500235 -0.553373 14.1982 2.47953 -5.11674 16.6269 1.85763
-5.27246 16.4352 1.90682 -5.54866 14.0872 2.50222 -5.16813 20.8205 0.182154 -1.21612
20.8349 0.223203 -1.55115 16.7639 1.8228 -5.07514 15.1617 2.28395 -4.66564 15.6569
-0.297264 3.91544 16.0691 -0.324158 3.52652 16.5698 -0.341518 2.77294 17.8687 -0.156437
0.756254 0 0 0 -0.669348 0.934338 2.16013 -0.698684 0.911641 2.17258
0 0 0 13.2723 -0.0822479 -2.41974 13.9287 0.363477 -1.16811 13.1026
-0.00280331 -2.673 11.4435 0.754682 -4.77032 11.6384 0.717864 -4.72722 13.0834 0.305407
-2.99018 13.3184 0.644929 -2.78599 14.1233 0.676844 -1.42533 14.0731 0.420852 -1.32227
-1.02064 -0.250583 1.05508 -0.946229 -0.0968073 0.624185 -1.11473 -0.237636 0.608621 9.47887
2.66096 -3.77351 10.2226 3.16457 -3.78084 11.7786 2.72532 -3.89529 11.3369 2.69228
-3.89354 11.7008 2.75354 -3.91131 18.5869 0.0129066 0.969859 18.3705 0.0170387 1.15086
19.4312 0.0461096 2.21905 19.3694 0.0376978 1.99918 19.557 0.0320862 1.75418 19.4034
0.0112383 0.885991 19.497 0.0107393 0.842031 19.4782 0.0124193 0.937077 19.3716 0.0131778
0.994736 15.7409 0.643526 5.66514 15.2522 0.700133 5.41376 15.3493 0.666942 4.92372
12.5657 -0.33817 4.32272 11.3619 -0.408363 5.6721 9.34105 -0.536869 6.93033 10.9738
-0.437044 5.43502 13.5898 -0.269211 3.5439 12.8183 -0.320384 4.47182 15.56 -0.00148133
0.329088 15.6707 -0.00564919 0.434317 15.9304 -0.0045713 0.496025 15.8159 0.00552485 0.499752
0 0 0 -0.0568624 1.48978 1.80754 1.11456 1.84035 1.59252 0
0 0 -0.0872554 2.17685 0.669077 -0.613771 1.86864 1.09423 -0.415938 -0.816317
1.34552 -0.677293 -1.3519 0.414078 3.92496 0.906178 -2.37871 3.96896 0.875179 -2.52633
3.7966 0.871957 -2.35948 3.60313 0.84466 -2.37548 0.897827 2.04355 0.388619 4.19426
0.714191 -2.38897 4.28769 0.918271 -2.20187 0.567147 -1.40916 9.58773 0.971156 -1.5002
10.1261 1.36784 -1.54776 10.1885 -2.44713 -0.0217602 3.14516 -2.53316 -0.108421 3.13318
-2.79823 -0.294925 3.11899 -2.69094 0.158506 3.33783 -2.4987 0.186369 3.21248 3.92892
0.793449 -2.76656 3.86628 0.70609 -2.43377 3.93041 0.573688 -2.79451 14.009 0.0928373
-1.18845 -0.639789 0.0885978 1.46071 -0.420946 0.344046 0.673019 -0.963008 -0.258555 1.32739
-0.171707 0.213418 1.51599 -0.185121 0.30018 1.21687 0.440008 0.652276 0.449648 8.35211
1.56636 1.29864 12.7201 1.71095 0.523532 11.9152 1.48404 0.497672 8.28082 1.32253
1.53269 0 0 0 0 0 0 -0.80545 1.02577 0.146921
2.56733 -0.483883 -2.70708 3.20278 -0.393483 -2.91823 2.08418 -0.678348 -2.84451 2.06803
-0.686387 -2.83643 2.55581 -0.48938 -2.7038 -0.326113 -0.70833 -2.31421 -0.297556 -0.653353
-2.46165 -0.270958 -0.706024 -2.38718 1.38099 1.52979 0.0220179 1.10002 1.32455 -0.222629
-1.16601 -0.236497 -0.492847 3.47068 1.88805 5.13262 2.98621 2.24717 5.17168 2.32442
2.09662 4.56644 1.60815 1.31558 3.75381 2.26149 1.19873 4.16866 -0.656647 0.130907
-0.0577024 -1.0973 -0.421953 -0.137907 4.26455 1.77848 5.38231 3.55551 2.2949 5.37038
-0.480507 0.35815 0.076784 1.27086 1.54365 0.196368 4.75683 0.591787 4.66298 3.08973
0.552569 4.34048 9.56743 -2.67621 2.01612 9.19814 -3.27685 2.6701 10.0304 -3.52344
2.49597 10.0868 -2.9028 1.91435 4.37489 0.0545056 -3.23635 3.39684 -0.235574 -2.81863
6.68838 0.364099 3.97585 6.07863 0.580112 4.30789 5.02904 1.48013 4.81457 8.96221
-1.61676 1.26832 9.00049 -2.32851 2.04858 9.48263 -2.56905 1.97877 14.6991 0.0443363
-0.347996 15.3392 0.00695586 0.118954 20.7811 0.212958 0.258438 20.4501 0.0835451 0.820532
-0.645117 1.85086 1.119 19.1771 0.958221 7.23299 19.5677 0.554062 7.52827 16.687
0.478329 7.81041 18.1461 0.857858 7.43438 -2.43801 -0.0456939 3.13258 18.7519 1.28674
6.88926 -0.252753 -0.769673 -1.99252 -0.279545 -0.744695 -1.69726 -0.377811 -0.796342 -1.99808
-0.342497 -0.739875 -2.22967 1.22543 -0.9332 -2.26547 -0.258622 -0.730476 -2.35256 11.3702
-2.34674 -0.140799 11.4947 -2.46526 -0.424442 10.788 0.931554 -2.04927 10.6108 1.03917
-1.87393 9.61103 0.459559 -1.07608 10.1202 -2.52602 1.56121 10.422 -2.65585 1.53977
10.8778 -2.26504 0.751414 10.1303 0.778221 -1.38249 -1.39796 2.70267 0.900591 0
0 0 0 0 0 9.59784 -2.62655 1.96201 8.84212 0.446808
-0.994952 -0.198988 -1.22483 8.2762 9.31996 1.3206 -0.265672 0.0874883 -0.00674312 0.000897239
0.822612 0.0353533 0.0251668 2.93909 0.465562 -0.290793 17.4129 0.261512 -4.82047 19.663
0.436031 -3.83478 19.7049 0.350019 -3.6474 17.7516 0.152778 -4.58678 19.7375 0.235624
-3.07998 18.4703 0.0872566 -3.89591 18.3012 0.0754485 -4.0711 19.7466 0.25115 -3.23259
19.7828 0.00104824 0.0131282 19.7768 0.00106292 0.0347496 19.7116 0.000959579 0.0429307 19.7094
0.000904134 0.0150055 19.181 -0.00475366 0.0367775 19.3385 -0.00263936 0.00715187 19.3247 -0.00228587
0.0350461 19.8055 0.00126749 0.08389 19.8373 0.00140521 0.0997441 19.7818 0.00159143 0.130776
19.7486 0.00133335 0.106135 19.5038 0.00240828 0.285663 19.3314 0.00183799 0.307102 19.4532
0.00171241 0.257807 18.2451 -0.0508944 -0.017723 18.2434 -0.0490975 -0.029049 18.2106 -0.049521
-0.0450571 5.50337 -1.92958 -0.308196 6.63614 -2.36004 -0.219231 4.83587 -1.79891 0.0359849