# vtk DataFile Version 2.0
track0
ASCII
DATASET POLYDATA
POINTS 15780 float
-1.001 -0.05 0.0011
-1.0008 -0.05 0.0011
-1.0006 -0.05 0.0011
-1.0004 -0.05 0.0011
-1.0002 -0.05 0.0011
-1 -0.05 0.0011
-0.9875 -0.05 0.0011
-0.975 -0.05 0.0011
-0.9625 -0.05 0.0011
-0.95 -0.05 0.0011
-0.9375 -0.05 0.00109999
-0.925 -0.05 0.00109999
-0.9125 -0.05 0.00109999
-0.9 -0.05 0.00109999
-0.8875 -0.05 0.00109999
-0.875 -0.05 0.00109999
-0.8625 -0.05 0.00109999
-0.85 -0.05 0.00109999
-0.8375 -0.05 0.00109998
-0.825 -0.0500001 0.00109998
-0.8125 -0.0500001 0.00109998
-0.8 -0.0500001 0.00109998
-0.7875 -0.0500001 0.00109998
-0.775 -0.0500001 0.00109998
-0.7625 -0.0500001 0.00109998
-0.75 -0.0500001 0.00109998
-0.7375 -0.0500001 0.00109997
-0.725 -0.0500001 0.00109997
-0.7125 -0.0500001 0.00109997
-0.7 -0.0500001 0.00109997
-0.6875 -0.0500001 0.00109997
-0.675 -0.0500001 0.00109997
-0.6625 -0.0500001 0.00109997
-0.65 -0.0500001 0.00109996
-0.6375 -0.0500001 0.00109996
-0.625 -0.0500001 0.00109996
-0.6125 -0.0500001 0.00109996
-0.6 -0.0500001 0.00109996
-0.5875 -0.0500001 0.00109996
-0.575 -0.0500001 0.00109996
-0.5625 -0.0500001 0.00109996
-0.55 -0.0500001 0.00109995
-0.5375 -0.0500001 0.00109995
-0.525 -0.0500001 0.00109995
-0.5125 -0.0500001 0.00109995
-0.5 -0.0500001 0.00109995
-0.4875 -0.0500001 0.00109995
-0.475 -0.0500001 0.00109995
-0.4625 -0.0500001 0.00109994
-0.45 -0.0500002 0.00109994
-0.4375 -0.0500002 0.00109994
-0.425 -0.0500002 0.00109994
-0.4125 -0.0500002 0.00109994
-0.4 -0.0500002 0.00109994
-0.3875 -0.0500002 0.00109994
-0.375 -0.0500002 0.00109994
-0.3625 -0.0500002 0.00109993
-0.35 -0.0500002 0.00109993
-0.3375 -0.0500002 0.00109993
-0.325 -0.0500002 0.00109993
-0.3125 -0.0500002 0.00109993
-0.3 -0.0500002 0.00109993
-0.2875 -0.0500002 0.00109993
-0.275 -0.0500002 0.00109993
-0.2625 -0.0500002 0.00109992
-0.25 -0.0500002 0.00109992
-0.2375 -0.0500002 0.00109992
-0.225 -0.0500002 0.00109992
-0.2125 -0.0500002 0.00109992
-0.2 -0.0500002 0.00109992
-0.1875 -0.0500002 0.00109992
-0.175 -0.0500002 0.00109992
-0.1625 -0.0500002 0.00109991
-0.15 -0.0500002 0.00109991
-0.1375 -0.0500002 0.00109991
-0.125 -0.0500002 0.00109991
-0.1125 -0.0500002 0.00109991
-0.1 -0.0500002 0.00109991
-0.0875 -0.0500002 0.00109991
-0.075 -0.0500002 0.00109991
-0.0625 -0.0500002 0.00109991
-0.05 -0.0500003 0.00109991
-0.0375 -0.0500003 0.0010999
-0.025 -0.0500003 0.0010999
-0.0125 -0.0500003 0.0010999
2.10607e-13 -0.0500003 0.0010999
0.0125 -0.0500003 0.0010999
0.025 -0.0500003 0.0010999
0.0375 -0.0500003 0.0010999
0.05 -0.0500003 0.0010999
0.0625 -0.0500003 0.0010999
0.075 -0.0500003 0.0010999
0.0875 -0.0500003 0.0010999
0.1 -0.0500003 0.00109989
0.1125 -0.0500003 0.00109989
0.125 -0.0500003 0.00109989
0.1375 -0.0500003 0.00109989
0.15 -0.0500003 0.00109989
0.1625 -0.0500003 0.00109989
0.175 -0.0500003 0.00109989
0.1875 -0.0500003 0.00109989
0.2 -0.0500003 0.00109989
0.2125 -0.0500003 0.00109989
0.225 -0.0500003 0.00109989
0.2375 -0.0500003 0.00109989
0.25 -0.0500003 0.00109989
0.2625 -0.0500003 0.00109988
0.275 -0.0500003 0.00109988
0.2875 -0.0500003 0.00109988
0.3 -0.0500003 0.00109988
0.3125 -0.0500003 0.00109988
0.325 -0.0500003 0.00109988
0.3375 -0.0500003 0.00109988
0.35 -0.0500003 0.00109988
0.3625 -0.0500003 0.00109988
0.375 -0.0500003 0.00109988
0.3875 -0.0500003 0.00109988
0.4 -0.0500004 0.00109988
0.4125 -0.0500004 0.00109988
0.425 -0.0500004 0.00109988
0.4375 -0.0500004 0.00109988
0.45 -0.0500004 0.00109988
0.4625 -0.0500004 0.00109988
0.475 -0.0500004 0.00109988
0.4875 -0.0500004 0.00109988
0.5 -0.0500004 0.00109988
0.5125 -0.0500004 0.00109988
0.525 -0.0500004 0.00109988
0.5375 -0.0500004 0.00109988
0.55 -0.0500004 0.00109988
0.5625 -0.0500004 0.00109988
0.575 -0.0500004 0.00109987
0.5875 -0.0500004 0.00109987
0.6 -0.0500004 0.00109987
0.6125 -0.0500004 0.00109987
0.625 -0.0500004 0.00109987
0.6375 -0.0500004 0.00109987
0.65 -0.0500004 0.00109987
0.6625 -0.0500004 0.00109987
0.675 -0.0500004 0.00109987
0.6875 -0.0500004 0.00109987
0.7 -0.0500004 0.00109987
0.7125 -0.0500004 0.00109987
0.725 -0.0500004 0.00109987
0.7375 -0.0500004 0.00109987
0.75 -0.0500004 0.00109987
0.7625 -0.0500004 0.00109987
0.775 -0.0500004 0.00109987
0.7875 -0.0500004 0.00109987
0.8 -0.0500004 0.00109987
0.8125 -0.0500004 0.00109987
0.825 -0.0500004 0.00109987
0.8375 -0.0500004 0.00109987
0.85 -0.0500004 0.00109987
0.8625 -0.0500004 0.00109987
0.875 -0.0500004 0.00109987
0.8875 -0.0500004 0.00109987
0.9 -0.0500004 0.00109987
0.9125 -0.0500005 0.00109988
0.925 -0.0500005 0.00109988
0.9375 -0.0500005 0.00109988
0.95 -0.0500005 0.00109988
0.9625 -0.0500005 0.00109988
0.975 -0.0500005 0.00109988
0.9875 -0.0500005 0.00109988
1 -0.0500005 0.00109988
1.0125 -0.0500005 0.00109988
1.025 -0.0500005 0.00109988
1.0375 -0.0500005 0.00109988
1.05 -0.0500005 0.00109988
1.0625 -0.0500005 0.00109988
1.075 -0.0500005 0.00109988
1.0875 -0.0500005 0.00109988
1.1 -0.0500005 0.00109988
1.1125 -0.0500005 0.00109988
1.125 -0.0500005 0.00109988
1.1375 -0.0500005 0.00109988
1.15 -0.0500005 0.00109988
1.1625 -0.0500005 0.00109988
1.175 -0.0500005 0.00109988
1.1875 -0.0500005 0.00109988
1.2 -0.0500005 0.00109988
1.2125 -0.0500005 0.00109988
1.225 -0.0500005 0.00109988
1.2375 -0.0500005 0.00109989
1.25 -0.0500005 0.00109989
1.2625 -0.0500005 0.00109989
1.275 -0.0500005 0.00109989
1.2875 -0.0500005 0.00109989
1.3 -0.0500005 0.00109989
1.3125 -0.0500005 0.00109989
1.325 -0.0500005 0.00109989
1.3375 -0.0500005 0.00109989
1.35 -0.0500005 0.00109989
1.3625 -0.0500005 0.00109989
1.375 -0.0500005 0.00109989
1.3875 -0.0500005 0.00109989
1.4 -0.0500005 0.00109989
1.4125 -0.0500005 0.00109989
1.425 -0.0500005 0.00109989
1.4375 -0.0500005 0.0010999
1.45 -0.0500005 0.0010999
1.4625 -0.0500005 0.0010999
1.475 -0.0500005 0.0010999
1.4875 -0.0500005 0.0010999
1.5 -0.0500006 0.0010999
1.5125 -0.0500006 0.0010999
1.525 -0.0500006 0.0010999
1.5375 -0.0500006 0.0010999
1.55 -0.0500006 0.0010999
1.5625 -0.0500006 0.0010999
1.575 -0.0500006 0.0010999
1.5875 -0.0500006 0.0010999
1.6 -0.0500006 0.0010999
1.6125 -0.0500006 0.00109991
1.625 -0.0500006 0.00109991
1.6375 -0.0500006 0.00109991
1.65 -0.0500006 0.00109991
1.6625 -0.0500006 0.00109991
1.675 -0.0500006 0.00109991
1.6875 -0.0500006 0.00109991
1.7 -0.0500006 0.00109991
1.7125 -0.0500006 0.00109991
1.725 -0.0500006 0.00109991
1.7375 -0.0500006 0.00109991
1.75 -0.0500006 0.00109991
1.7625 -0.0500006 0.00109992
1.775 -0.0500006 0.00109992
1.7875 -0.0500006 0.00109992
1.8 -0.0500006 0.00109992
1.8125 -0.0500006 0.00109992
1.825 -0.0500006 0.00109992
1.8375 -0.0500006 0.00109992
1.85 -0.0500006 0.00109992
1.8625 -0.0500006 0.00109992
1.875 -0.0500006 0.00109992
1.8875 -0.0500006 0.00109992
1.9 -0.0500006 0.00109992
1.9125 -0.0500006 0.00109993
1.925 -0.0500006 0.00109993
1.9375 -0.0500006 0.00109993
1.95 -0.0500006 0.00109993
1.9625 -0.0500006 0.00109993
1.975 -0.0500006 0.00109993
1.9875 -0.0500006 0.00109993
2 -0.0500006 0.00109993
2.0125 -0.0500006 0.00109993
2.025 -0.0500006 0.00109993
2.0375 -0.0500006 0.00109993
2.05 -0.0500006 0.00109993
2.0625 -0.0500006 0.00109993
2.075 -0.0500006 0.00109994
2.0875 -0.0500006 0.00109994
2.1 -0.0500006 0.00109994
2.1125 -0.0500006 0.00109994
2.125 -0.0500006 0.00109994
2.1375 -0.0500006 0.00109994
2.15 -0.0500006 0.00109994
2.1625 -0.0500006 0.00109994
2.175 -0.0500007 0.00109994
2.1875 -0.0500007 0.00109994
2.2 -0.0500007 0.00109994
2.2125 -0.0500007 0.00109994
2.225 -0.0500007 0.00109995
2.2375 -0.0500007 0.00109995
2.25 -0.0500007 0.00109995
2.2625 -0.0500007 0.00109995
2.275 -0.0500007 0.00109995
2.2875 -0.0500007 0.00109995
2.3 -0.0500007 0.00109995
2.3125 -0.0500007 0.00109995
2.325 -0.0500007 0.00109995
2.3375 -0.0500007 0.00109995
2.35 -0.0500007 0.00109995
2.3625 -0.0500007 0.00109995
2.375 -0.0500007 0.00109995
2.3875 -0.0500007 0.00109996
2.4 -0.0500007 0.00109996
2.4125 -0.0500007 0.00109996
2.425 -0.0500007 0.00109996
2.4375 -0.0500007 0.00109996
2.45 -0.0500007 0.00109996
2.4625 -0.0500007 0.00109996
2.475 -0.0500007 0.00109996
2.4875 -0.0500007 0.00109996
2.5 -0.0500007 0.00109996
2.5125 -0.0500007 0.00109996
2.525 -0.0500007 0.00109996
2.5375 -0.0500007 0.00109996
2.55 -0.0500007 0.00109996
2.5625 -0.0500007 0.00109997
2.575 -0.0500007 0.00109997
2.5875 -0.0500007 0.00109997
2.6 -0.0500007 0.00109997
2.6125 -0.0500007 0.00109997
2.625 -0.0500007 0.00109997
2.6375 -0.0500007 0.00109997
2.65 -0.0500007 0.00109997
2.6625 -0.0500007 0.00109997
2.675 -0.0500007 0.00109997
2.6875 -0.0500007 0.00109997
2.7 -0.0500007 0.00109997
2.7125 -0.0500007 0.00109997
2.725 -0.0500007 0.00109997
2.7375 -0.0500007 0.00109997
2.75 -0.0500007 0.00109997
2.7625 -0.0500007 0.00109998
2.775 -0.0500007 0.00109998
2.7875 -0.0500007 0.00109998
2.8 -0.0500007 0.00109998
2.8125 -0.0500007 0.00109998
2.825 -0.0500007 0.00109998
2.8375 -0.0500007 0.00109998
2.85 -0.0500007 0.00109998
2.8625 -0.0500008 0.00109998
2.875 -0.0500008 0.00109998
2.8875 -0.0500008 0.00109998
2.9 -0.0500008 0.00109998
2.9125 -0.0500008 0.00109998
2.925 -0.0500008 0.00109998
2.9375 -0.0500008 0.00109998
2.95 -0.0500008 0.00109998
2.9625 -0.0500008 0.00109998
2.975 -0.0500008 0.00109998
2.9875 -0.0500008 0.00109998
3 -0.0500008 0.00109998
3.0125 -0.0500008 0.00109999
3.025 -0.0500008 0.00109999
3.0375 -0.0500008 0.00109999
3.05 -0.0500008 0.00109999
3.0625 -0.0500008 0.00109999
3.075 -0.0500008 0.00109999
3.0875 -0.0500008 0.00109999
3.1 -0.0500008 0.00109999
3.1125 -0.0500008 0.00109999
3.125 -0.0500008 0.00109999
3.1375 -0.0500008 0.00109999
3.15 -0.0500008 0.00109999
3.1625 -0.0500008 0.00109999
3.175 -0.0500008 0.00109999
3.1875 -0.0500008 0.00109999
3.2 -0.0500008 0.00109999
3.2125 -0.0500008 0.00109999
3.225 -0.0500008 0.00109999
3.2375 -0.0500008 0.00109999
3.25 -0.0500008 0.00109999
3.2625 -0.0500008 0.00109999
3.275 -0.0500008 0.00109999
3.2875 -0.0500008 0.00109999
3.3 -0.0500008 0.00109999
3.3125 -0.0500008 0.00109999
3.325 -0.0500008 0.00109999
3.3375 -0.0500008 0.00109999
3.35 -0.0500008 0.0011
3.3625 -0.0500008 0.0011
[...]
POINT_DATA 15780
 FIELD attributes 1
U 3 15780 float
30.0002 	-7.01787e-06 	-6.30587e-06 30.0002 	-6.84338e-06 	-6.51453e-06 30.0002 	-6.66889e-06 	-6.7232e-06 30.0002 	-6.4944e-06 	-6.93187e-06 30.0002 	-6.31992e-06 	-7.14053e-06 30.0002 	-6.14543e-06 	-7.3492e-06 30.0004 	-1.23851e-05 	-1.261e-06 30.0004 	-1.23851e-05 	-1.261e-06 30.0004 	-1.23851e-05 	-1.261e-06 30.0004 	-1.23851e-05 	-1.261e-06 30.0002 	-7.04865e-08 	-6.84366e-06 30.0005 	-1.0709e-05 	-1.68706e-06 30.0005 	-1.0709e-05 	-1.68706e-06 30.0005 	-1.0709e-05 	-1.68706e-06 30.0005 	-1.0709e-05 	-1.68706e-06 30.0002 	-7.21641e-08 	-6.59607e-06 30.0005 	-9.95843e-06 	-2.08024e-06 30.0005 	-9.95842e-06 	-2.08023e-06 30.0005 	-9.95841e-06 	-2.08023e-06 30.0005 	-9.95841e-06 	-2.08023e-06 30.0003 	-4.59305e-06 	-6.24725e-06 30.0005 	-9.69167e-06 	-2.34896e-06 30.0005 	-9.69166e-06 	-2.34896e-06 30.0005 	-9.69165e-06 	-2.34896e-06 30.0005 	-9.69164e-06 	-2.34896e-06 30.0003 	-7.57621e-08 	-6.57615e-06 30.0005 	-9.52349e-06 	-2.49784e-06 30.0005 	-9.52348e-06 	-2.49783e-06 30.0005 	-9.52347e-06 	-2.49783e-06 30.0005 	-9.52347e-06 	-2.49783e-06 30.0003 	-7.75232e-08 	-6.52626e-06 30.0005 	-9.38714e-06 	-2.55608e-06 30.0005 	-9.38713e-06 	-2.55607e-06 30.0005 	-9.38712e-06 	-2.55607e-06 30.0005 	-9.38711e-06 	-2.55607e-06 30.0003 	-4.26688e-06 	-6.08528e-06 30.0005 	-9.27972e-06 	-2.55831e-06 30.0005 	-9.27972e-06 	-2.5583e-06 30.0005 	-9.27971e-06 	-2.5583e-06 30.0005 	-9.2797e-06 	-2.5583e-06 30.0003 	-4.19928e-06 	-5.97789e-06 30.0006 	-9.18754e-06 	-2.53044e-06 30.0006 	-9.18753e-06 	-2.53044e-06 30.0006 	-9.18752e-06 	-2.53044e-06 30.0006 	-9.18751e-06 	-2.53043e-06 30.0003 	-8.28386e-08 	-6.20127e-06 30.0006 	-9.09748e-06 	-2.48119e-06 30.0006 	-9.09748e-06 	-2.48119e-06 30.0006 	-9.09747e-06 	-2.48119e-06 30.0006 	-9.09746e-06 	-2.48119e-06 30.0003 	-8.4598e-08 	-6.05424e-06 30.0006 	-9.00504e-06 	-2.41362e-06 30.0006 	-9.00503e-06 	-2.41362e-06 30.0006 	-9.00502e-06 	-2.41362e-06 30.0006 	-9.00502e-06 	-2.41361e-06 30.0003 	-8.636e-08 	-5.88782e-06 30.0006 	-8.90891e-06 	-2.32973e-06 30.0006 	-8.9089e-06 	-2.32973e-06 30.0006 	-8.90889e-06 	-2.32973e-06 30.0006 	-8.90889e-06 	-2.32973e-06 30.0003 	-3.9379e-06 	-5.36347e-06 30.0006 	-8.80888e-06 	-2.23276e-06 30.0006 	-8.80887e-06 	-2.23275e-06 30.0006 	-8.80886e-06 	-2.23275e-06 30.0006 	-8.80886e-06 	-2.23275e-06 30.0003 	-3.86412e-06 	-5.16476e-06 30.0006 	-8.70461e-06 	-2.12415e-06 30.0006 	-8.7046e-06 	-2.12415e-06 30.0006 	-8.70459e-06 	-2.12415e-06 30.0006 	-8.70459e-06 	-2.12415e-06 30.0003 	-9.16461e-08 	-5.28458e-06 30.0006 	-8.59644e-06 	-2.00509e-06 30.0006 	-8.59644e-06 	-2.00509e-06 30.0006 	-8.59643e-06 	-2.00508e-06 30.0006 	-8.59642e-06 	-2.00508e-06 30.0003 	-3.70453e-06 	-4.7194e-06 30.0007 	-8.48508e-06 	-1.87669e-06 30.0007 	-8.48508e-06 	-1.87669e-06 30.0007 	-8.48507e-06 	-1.87669e-06 30.0007 	-8.48507e-06 	-1.87669e-06 30.0003 	-3.61944e-06 	-4.47431e-06 30.0007 	-8.37175e-06 	-1.73885e-06 30.0007 	-8.37175e-06 	-1.73885e-06 30.0007 	-8.37174e-06 	-1.73885e-06 30.0007 	-8.37174e-06 	-1.73885e-06 30.0004 	-9.69159e-08 	-4.5432e-06 30.0007 	-8.26022e-06 	-1.59804e-06 30.0007 	-8.26022e-06 	-1.59804e-06 30.0007 	-8.26021e-06 	-1.59804e-06 30.0007 	-8.26021e-06 	-1.59804e-06 30.0004 	-9.86748e-08 	-4.27125e-06 30.0007 	-8.14824e-06 	-1.46324e-06 30.0007 	-8.14824e-06 	-1.46324e-06 30.0007 	-8.14823e-06 	-1.46324e-06 30.0007 	-8.14823e-06 	-1.46324e-06 30.0004 	-1.00421e-07 	-3.98928e-06 30.0007 	-8.02019e-06 	-1.32073e-06 30.0007 	-8.02018e-06 	-1.32073e-06 30.0007 	-8.02018e-06 	-1.32073e-06 30.0007 	-8.02017e-06 	-1.32073e-06 30.0004 	-3.25114e-06 	-3.37796e-06 30.0007 	-7.88141e-06 	-1.16802e-06 30.0007 	-7.88141e-06 	-1.16802e-06 30.0007 	-7.8814e-06 	-1.16801e-06 30.0007 	-7.8814e-06 	-1.16801e-06 30.0004 	-1.03874e-07 	-3.4029e-06 30.0007 	-7.74551e-06 	-1.00789e-06 30.0007 	-7.7455e-06 	-1.00789e-06 30.0007 	-7.7455e-06 	-1.00789e-06 30.0007 	-7.7455e-06 	-1.00789e-06 30.0004 	-1.05602e-07 	-3.10329e-06 30.0007 	-7.61139e-06 	-8.41872e-07 30.0007 	-7.61139e-06 	-8.41871e-07 30.0007 	-7.61139e-06 	-8.41871e-07 30.0007 	-7.61139e-06 	-8.41871e-07 30.0004 	-2.93201e-06 	-2.4879e-06 30.0007 	-7.47564e-06 	-6.7022e-07 30.0007 	-7.47564e-06 	-6.7022e-07 30.0007 	-7.47564e-06 	-6.7022e-07 30.0007 	-7.47563e-06 	-6.70219e-07 30.0004 	-2.82556e-06 	-2.18315e-06 30.0007 	-7.34355e-06 	-4.97067e-07 30.0007 	-7.34355e-06 	-4.97067e-07 30.0007 	-7.34355e-06 	-4.97067e-07 30.0007 	-7.34355e-06 	-4.97067e-07 30.0004 	-1.10728e-07 	-2.17113e-06 30.0007 	-7.21577e-06 	-3.17341e-07 30.0007 	-7.21577e-06 	-3.17341e-07 30.0007 	-7.21577e-06 	-3.17341e-07 30.0007 	-7.21577e-06 	-3.17341e-07 30.0004 	-1.12417e-07 	-1.85339e-06 30.0007 	-7.09905e-06 	-1.38235e-07 30.0007 	-7.09905e-06 	-1.38235e-07 30.0007 	-7.09905e-06 	-1.38235e-07 30.0007 	-7.09905e-06 	-1.38235e-07 30.0004 	-1.14085e-07 	-1.54905e-06 30.0007 	-6.98574e-06 	4.08343e-08 30.0007 	-6.98574e-06 	4.08343e-08 30.0007 	-6.98574e-06 	4.08343e-08 30.0007 	-6.98574e-06 	4.08343e-08 30.0004 	-2.43916e-06 	-9.58528e-07 30.0007 	-6.87216e-06 	2.14647e-07 30.0007 	-6.87216e-06 	2.14647e-07 30.0007 	-6.87216e-06 	2.14647e-07 30.0007 	-6.87216e-06 	2.14647e-07 30.0004 	-2.34757e-06 	-6.82326e-07 30.0007 	-6.75406e-06 	3.90701e-07 30.0007 	-6.75406e-06 	3.90701e-07 30.0007 	-6.75406e-06 	3.90701e-07 30.0007 	-6.75406e-06 	3.90701e-07 30.0004 	-1.19101e-07 	-7.09801e-07 30.0007 	-6.64361e-06 	5.64358e-07 30.0007 	-6.64361e-06 	5.64358e-07 30.0007 	-6.64361e-06 	5.64358e-07 30.0007 	-6.64361e-06 	5.64358e-07 30.0004 	-2.16726e-06 	-1.4547e-07 30.0007 	-6.53663e-06 	7.27385e-07 30.0007 	-6.53663e-06 	7.27385e-07 30.0007 	-6.53664e-06 	7.27386e-07 30.0007 	-6.53664e-06 	7.27386e-07 30.0004 	-2.0816e-06 	1.13805e-07 30.0007 	-6.43135e-06 	8.78824e-07 30.0007 	-6.43135e-06 	8.78825e-07 30.0007 	-6.43135e-06 	8.78825e-07 30.0007 	-6.43135e-06 	8.78825e-07 30.0004 	-1.2405e-07 	7.05445e-08 30.0007 	-6.32382e-06 	1.01778e-06 30.0007 	-6.32382e-06 	1.01778e-06 30.0007 	-6.32383e-06 	1.01778e-06 30.0007 	-6.32383e-06 	1.01778e-06 30.0004 	-1.25652e-07 	3.15775e-07 30.0007 	-6.21746e-06 	1.14062e-06 30.0007 	-6.21747e-06 	1.14062e-06 30.0007 	-6.21747e-06 	1.14062e-06 30.0007 	-6.21747e-06 	1.14062e-06 30.0004 	-1.27239e-07 	5.45496e-07 30.0007 	-6.1162e-06 	1.25632e-06 30.0007 	-6.1162e-06 	1.25632e-06 30.0007 	-6.11621e-06 	1.25632e-06 30.0007 	-6.11621e-06 	1.25632e-06 30.0004 	-1.76481e-06 	1.03205e-06 30.0007 	-6.02348e-06 	1.37127e-06 30.0007 	-6.02348e-06 	1.37127e-06 30.0007 	-6.02348e-06 	1.37127e-06 30.0007 	-6.02349e-06 	1.37127e-06 30.0004 	-1.30343e-07 	9.36915e-07 30.0007 	-5.94381e-06 	1.4885e-06 30.0007 	-5.94382e-06 	1.4885e-06 30.0007 	-5.94382e-06 	1.4885e-06 30.0007 	-5.94382e-06 	1.4885e-06 30.0004 	-1.31844e-07 	1.10454e-06 30.0007 	-5.87259e-06 	1.59289e-06 30.0007 	-5.8726e-06 	1.59289e-06 30.0007 	-5.8726e-06 	1.59289e-06 30.0007 	-5.8726e-06 	1.59289e-06 30.0004 	-1.59191e-06 	1.53874e-06 30.0007 	-5.80298e-06 	1.67932e-06 30.0007 	-5.80298e-06 	1.67932e-06 30.0007 	-5.80298e-06 	1.67932e-06 30.0007 	-5.80299e-06 	1.67932e-06 30.0003 	-1.54469e-06 	1.67818e-06 30.0007 	-5.73492e-06 	1.75012e-06 30.0007 	-5.73493e-06 	1.75012e-06 30.0007 	-5.73493e-06 	1.75012e-06 30.0007 	-5.73494e-06 	1.75012e-06 30.0003 	-1.36529e-07 	1.52471e-06 30.0006 	-5.66977e-06 	1.80982e-06 30.0006 	-5.66977e-06 	1.80982e-06 30.0006 	-5.66977e-06 	1.80982e-06 30.0006 	-5.66978e-06 	1.80982e-06 30.0003 	-1.3807e-07 	1.63225e-06 30.0006 	-5.60967e-06 	1.85995e-06 30.0006 	-5.60967e-06 	1.85995e-06 30.0006 	-5.60968e-06 	1.85996e-06 30.0006 	-5.60968e-06 	1.85996e-06 30.0003 	-1.39523e-07 	1.72398e-06 30.0006 	-5.55535e-06 	1.90045e-06 30.0006 	-5.55535e-06 	1.90045e-06 30.0006 	-5.55536e-06 	1.90045e-06 30.0006 	-5.55536e-06 	1.90045e-06 30.0003 	-1.38932e-06 	2.071e-06 30.0006 	-5.50649e-06 	1.93111e-06 30.0006 	-5.50649e-06 	1.93111e-06 30.0006 	-5.50649e-06 	1.93111e-06 30.0006 	-5.5065e-06 	1.93111e-06 30.0003 	-1.36227e-06 	2.13094e-06 30.0006 	-5.46273e-06 	1.95184e-06 30.0006 	-5.46274e-06 	1.95185e-06 30.0006 	-5.46274e-06 	1.95185e-06 30.0006 	-5.46274e-06 	1.95185e-06 30.0003 	-1.43504e-07 	1.90824e-06 30.0006 	-5.42391e-06 	1.96279e-06 30.0006 	-5.42392e-06 	1.9628e-06 30.0006 	-5.42392e-06 	1.9628e-06 30.0006 	-5.42392e-06 	1.9628e-06 30.0003 	-1.32384e-06 	2.20763e-06 30.0006 	-5.38991e-06 	1.96433e-06 30.0006 	-5.38992e-06 	1.96433e-06 30.0006 	-5.38992e-06 	1.96433e-06 30.0006 	-5.38993e-06 	1.96433e-06 30.0003 	-1.31205e-06 	2.22551e-06 30.0006 	-5.3607e-06 	1.95692e-06 30.0006 	-5.3607e-06 	1.95692e-06 30.0006 	-5.36071e-06 	1.95693e-06 30.0006 	-5.36071e-06 	1.95693e-06 30.0003 	-1.47308e-07 	1.96615e-06 30.0005 	-5.33617e-06 	1.94112e-06 30.0005 	-5.33618e-06 	1.94112e-06 30.0005 	-5.33618e-06 	1.94112e-06 30.0005 	-5.33619e-06 	1.94113e-06 30.0003 	-1.48534e-07 	1.96055e-06 30.0005 	-5.31614e-06 	1.91793e-06 30.0005 	-5.31614e-06 	1.91793e-06 30.0005 	-5.31615e-06 	1.91793e-06 30.0005 	-5.31615e-06 	1.91793e-06 30.0003 	-1.49729e-07 	1.94422e-06 30.0005 	-5.3005e-06 	1.888e-06 30.0005 	-5.30051e-06 	1.888e-06 30.0005 	-5.30051e-06 	1.888e-06 30.0005 	-5.30051e-06 	1.888e-06 30.0003 	-1.30942e-06 	2.17897e-06 30.0005 	-5.28912e-06 	1.8519e-06 30.0005 	-5.28912e-06 	1.8519e-06 30.0005 	-5.28913e-06 	1.8519e-06 30.0005 	-5.28913e-06 	1.8519e-06 30.0003 	-1.52037e-07 	1.88228e-06 30.0005 	-5.2818e-06 	1.81007e-06 30.0005 	-5.28181e-06 	1.81007e-06 30.0005 	-5.28181e-06 	1.81007e-06 30.0005 	-5.28181e-06 	1.81007e-06 30.0003 	-1.53138e-07 	1.83815e-06 30.0005 	-5.27832e-06 	1.76315e-06 30.0005 	-5.27832e-06 	1.76315e-06 30.0005 	-5.27833e-06 	1.76315e-06 30.0005 	-5.27833e-06 	1.76315e-06 30.0003 	-1.34859e-06 	2.04405e-06 30.0005 	-5.27845e-06 	1.71161e-06 30.0005 	-5.27846e-06 	1.71161e-06 30.0005 	-5.27846e-06 	1.71161e-06 30.0005 	-5.27846e-06 	1.71161e-06 30.0003 	-1.36864e-06 	1.98421e-06 30.0005 	-5.28199e-06 	1.65598e-06 30.0005 	-5.28199e-06 	1.65598e-06 30.0005 	-5.282e-06 	1.65598e-06 30.0005 	-5.282e-06 	1.65598e-06 30.0002 	-1.56301e-07 	1.66279e-06 30.0005 	-5.28875e-06 	1.59666e-06 30.0005 	-5.28876e-06 	1.59666e-06 30.0005 	-5.28876e-06 	1.59666e-06 30.0005 	-5.28876e-06 	1.59666e-06 30.0002 	-1.57342e-07 	1.59254e-06 30.0004 	-5.29867e-06 	1.53414e-06 30.0004 	-5.29867e-06 	1.53414e-06 30.0004 	-5.29868e-06 	1.53414e-06 30.0004 	-5.29868e-06 	1.53414e-06 30.0002 	-1.58404e-07 	1.51767e-06 30.0004 	-5.31158e-06 	1.46887e-06 30.0004 	-5.31159e-06 	1.46887e-06 30.0004 	-5.31159e-06 	1.46887e-06 30.0004 	-5.31159e-06 	1.46887e-06 30.0002 	-1.48026e-06 	1.69059e-06 30.0004 	-5.3271e-06 	1.40141e-06 30.0004 	-5.3271e-06 	1.40142e-06 30.0004 	-5.3271e-06 	1.40142e-06 30.0004 	-5.3271e-06 	1.40142e-06 30.0002 	-1.51478e-06 	1.6071e-06 30.0004 	-5.34498e-06 	1.33217e-06 30.0004 	-5.34498e-06 	1.33217e-06 30.0004 	-5.34498e-06 	1.33217e-06 30.0004 	-5.34498e-06 	1.33217e-06 30.0002 	-1.61625e-07 	1.27184e-06 30.0004 	-5.36498e-06 	1.26146e-06 30.0004 	-5.36498e-06 	1.26146e-06 30.0004 	-5.36499e-06 	1.26146e-06 30.0004 	-5.36499e-06 	1.26146e-06 30.0002 	-1.5901e-06 	1.43247e-06 30.0004 	-5.38678e-06 	1.18978e-06 30.0004 	-5.38678e-06 	1.18978e-06 30.0004 	-5.38678e-06 	1.18978e-06 30.0004 	-5.38679e-06 	1.18978e-06 30.0002 	-1.63059e-06 	1.34239e-06 30.0004 	-5.41038e-06 	1.11745e-06 30.0004 	-5.41038e-06 	1.11745e-06 30.0004 	-5.41039e-06 	1.11745e-06 30.0004 	-5.41039e-06 	1.11745e-06 30.0002 	-1.64633e-07 	1.00606e-06 30.0004 	-5.43553e-06 	1.04478e-06 30.0004 	-5.43553e-06 	1.04478e-06 30.0004 	-5.43553e-06 	1.04478e-06 30.0004 	-5.43553e-06 	1.04478e-06 30.0002 	-1.65585e-07 	9.15592e-07 30.0004 	-5.46116e-06 	9.72243e-07 30.0004 	-5.46116e-06 	9.72243e-07 30.0004 	-5.46116e-06 	9.72244e-07 30.0004 	-5.46116e-06 	9.72244e-07 30.0002 	-1.66483e-07 	8.2497e-07 30.0004 	-5.48717e-06 	8.99465e-07 30.0004 	-5.48718e-06 	8.99465e-07 30.0004 	-5.48718e-06 	8.99466e-07 30.0004 	-5.48718e-06 	8.99466e-07 30.0002 	-1.80748e-06 	9.75402e-07 30.0004 	-5.51394e-06 	8.25934e-07 30.0004 	-5.51394e-06 	8.25934e-07 30.0004 	-5.51394e-06 	8.25934e-07 30.0004 	-5.51394e-06 	8.25934e-07 30.0002 	-1.68174e-07 	6.43603e-07 30.0003 	-5.54368e-06 	7.51974e-07 30.0003 	-5.54368e-06 	7.51975e-07 30.0003 	-5.54368e-06 	7.51975e-07 30.0003 	-5.54368e-06 	7.51975e-07 30.0002 	-1.69006e-07 	5.52609e-07 30.0003 	-5.57815e-06 	6.77432e-07 30.0003 	-5.57815e-06 	6.77432e-07 30.0003 	-5.57815e-06 	6.77432e-07 30.0003 	-5.57815e-06 	6.77432e-07 30.0002 	-1.95583e-06 	7.01296e-07 30.0003 	-5.61498e-06 	6.04365e-07 30.0003 	-5.61498e-06 	6.04365e-07 30.0003 	-5.61498e-06 	6.04365e-07 30.0003 	-5.61499e-06 	6.04365e-07 30.0002 	-2.00802e-06 	6.11667e-07 30.0003 	-5.6511e-06 	5.34656e-07 30.0003 	-5.6511e-06 	5.34656e-07 30.0003 	-5.6511e-06 	5.34656e-07 30.0003 	-5.6511e-06 	5.34656e-07 30.0002 	-1.71494e-07 	2.80915e-07 30.0003 	-5.68221e-06 	4.67636e-07 30.0003 	-5.68221e-06 	4.67637e-07 30.0003 	-5.68221e-06 	4.67637e-07 30.0003 	-5.68221e-06 	4.67637e-07 30.0002 	-1.72322e-07 	1.97303e-07 30.0003 	-5.71061e-06 	4.03195e-07 30.0003 	-5.71062e-06 	4.03195e-07 30.0003 	-5.71062e-06 	4.03195e-07 30.0003 	-5.71062e-06 	4.03196e-07 30.0002 	-1.73114e-07 	1.16373e-07 30.0003 	-5.73877e-06 	3.39232e-07 30.0003 	-5.73877e-06 	3.39232e-07 30.0003 	-5.73877e-06 	3.39233e-07 30.0003 	-5.73877e-06 	3.39233e-07 30.0002 	-2.20128e-06 	2.74071e-07 30.0003 	-5.76673e-06 	2.75265e-07 30.0003 	-5.76673e-06 	2.75265e-07 30.0003 	-5.76673e-06 	2.75265e-07 30.0003 	-5.76673e-06 	2.75265e-07 30.0002 	-2.24821e-06 	1.9633e-07 30.0003 	-5.79353e-06 	2.10789e-07 30.0003 	-5.79353e-06 	2.10789e-07 30.0003 	-5.79353e-06 	2.10789e-07 30.0003 	-5.79354e-06 	2.10789e-07 30.0002 	-1.75301e-07 	-1.09168e-07 30.0003 	-5.82158e-06 	1.48791e-07 30.0003 	-5.82158e-06 	1.48791e-07 30.0003 	-5.82158e-06 	1.48791e-07 30.0003 	-5.82158e-06 	1.48791e-07 30.0002 	-2.342e-06 	4.46497e-08 30.0003 	-5.85082e-06 	8.99966e-08 30.0003 	-5.85082e-06 	8.99966e-08 30.0003 	-5.85082e-06 	8.99966e-08 30.0003 	-5.85082e-06 	8.99966e-08 30.0002 	-2.38931e-06 	-2.91252e-08 30.0003 	-5.88124e-06 	3.48272e-08 30.0003 	-5.88124e-06 	3.48272e-08 30.0003 	-5.88124e-06 	3.48272e-08 30.0003 	-5.88124e-06 	3.48272e-08 30.0002 	-1.77314e-07 	-3.30793e-07 30.0003 	-5.91307e-06 	-1.70488e-08 30.0003 	-5.91307e-06 	-1.70488e-08 30.0003 	-5.91307e-06 	-1.70488e-08 30.0003 	-5.91307e-06 	-1.70488e-08 30.0002 	-1.77952e-07 	-4.01823e-07 30.0003 	-5.94617e-06 	-6.90258e-08 30.0003 	-5.94617e-06 	-6.90258e-08 30.0003 	-5.94617e-06 	-6.90258e-08 30.0003 	-5.94617e-06 	-6.90258e-08 30.0002 	-1.78547e-07 	-4.67092e-07 30.0003 	-5.9781e-06 	-1.23289e-07 30.0003 	-5.97809e-06 	-1.23289e-07 30.0003 	-5.97809e-06 	-1.23289e-07 30.0003 	-5.97809e-06 	-1.23289e-07 30.0002 	-2.58081e-06 	-3.01399e-07 30.0003 	-6.00585e-06 	-1.77932e-07 30.0003 	-6.00585e-06 	-1.77932e-07 30.0003 	-6.00585e-06 	-1.77932e-07 30.0003 	-6.00585e-06 	-1.77932e-07 30.0002 	-1.7971e-07 	-5.849e-07 30.0003 	-6.02998e-06 	-2.29186e-07 30.0003 	-6.02998e-06 	-2.29186e-07 30.0003 	-6.02998e-06 	-2.29186e-07 30.0003 	-6.02998e-06 	-2.29186e-07 30.0002 	-1.80307e-07 	-6.42162e-07 30.0003 	-6.0532e-06 	-2.76149e-07 30.0003 	-6.0532e-06 	-2.76149e-07 30.0003 	-6.05319e-06 	-2.76149e-07 30.0003 	-6.05319e-06 	-2.76148e-07 30.0002 	-2.70885e-06 	-4.79001e-07 30.0003 	-6.07703e-06 	-3.1963e-07 30.0003 	-6.07703e-06 	-3.1963e-07 30.0003 	-6.07703e-06 	-3.1963e-07 30.0003 	-6.07702e-06 	-3.1963e-07 30.0002 	-2.74988e-06 	-5.34045e-07 30.0003 	-6.10132e-06 	-3.61156e-07 30.0003 	-6.10132e-06 	-3.61156e-07 30.0003 	-6.10132e-06 	-3.61156e-07 30.0003 	-6.10132e-06 	-3.61155e-07 30.0002 	-1.82022e-07 	-8.03797e-07 30.0003 	-6.12535e-06 	-4.01352e-07 30.0003 	-6.12535e-06 	-4.01352e-07 30.0003 	-6.12535e-06 	-4.01352e-07 30.0003 	-6.12534e-06 	-4.01352e-07 30.0001 	-1.82557e-07 	-8.53114e-07 30.0003 	-6.14871e-06 	-4.40346e-07 30.0003 	-6.14871e-06 	-4.40346e-07 30.0003 	-6.14871e-06 	-4.40346e-07 30.0003 	-6.14871e-06 	-4.40346e-07 30.0001 	-1.83073e-07 	-9.00323e-07 30.0003 	-6.17133e-06 	-4.7797e-07 30.0003 	-6.17133e-06 	-4.7797e-07 30.0003 	-6.17133e-06 	-4.7797e-07 30.0003 	-6.17133e-06 	-4.7797e-07 30.0001 	-2.90933e-06 	-7.31475e-07 30.0003 	-6.19309e-06 	-5.14186e-07 30.0003 	-6.19309e-06 	-5.14186e-07 30.0003 	-6.19309e-06 	-5.14186e-07 30.0003 	-6.19309e-06 	-5.14186e-07 30.0001 	-2.94719e-06 	-7.75601e-07 30.0003 	-6.21405e-06 	-5.48805e-07 30.0003 	-6.21405e-06 	-5.48805e-07 30.0003 	-6.21405e-06 	-5.48805e-07 30.0003 	-6.21405e-06 	-5.48805e-07 30.0001 	-1.84569e-07 	-1.02953e-06 30.0003 	-6.23418e-06 	-5.82019e-07 30.0003 	-6.23417e-06 	-5.82019e-07 30.0003 	-6.23417e-06 	-5.82019e-07 30.0003 	-6.23417e-06 	-5.82019e-07 30.0001 	-3.02019e-06 	-8.57489e-07 30.0003 	-6.25341e-06 	-6.13865e-07 30.0003 	-6.25341e-06 	-6.13865e-07 30.0003 	-6.25341e-06 	-6.13865e-07 30.0003 	-6.25341e-06 	-6.13865e-07 30.0001 	-3.05527e-06 	-8.95497e-07 30.0003 	-6.27189e-06 	-6.44393e-07 30.0003 	-6.27189e-06 	-6.44392e-07 30.0003 	-6.27189e-06 	-6.44392e-07 30.0003 	-6.27189e-06 	-6.44392e-07 30.0001 	-1.85968e-07 	-1.14085e-06 30.0003 	-6.28968e-06 	-6.73596e-07 30.0003 	-6.28968e-06 	-6.73596e-07 30.0003 	-6.28968e-06 	-6.73595e-07 30.0003 	-6.28968e-06 	-6.73595e-07 30.0001 	-1.86423e-07 	-1.1746e-06 30.0003 	-6.30667e-06 	-7.01415e-07 30.0003 	-6.30667e-06 	-7.01415e-07 30.0003 	-6.30667e-06 	-7.01415e-07 30.0003 	-6.30667e-06 	-7.01415e-07 30.0001 	-1.86858e-07 	-1.20668e-06 30.0003 	-6.32272e-06 	-7.2785e-07 30.0003 	-6.32272e-06 	-7.2785e-07 30.0003 	-6.32272e-06 	-7.27849e-07 30.0003 	-6.32271e-06 	-7.27849e-07 30.0001 	-3.18669e-06 	-1.03102e-06 30.0003 	-6.33795e-06 	-7.52963e-07 30.0003 	-6.33795e-06 	-7.52963e-07 30.0003 	-6.33794e-06 	-7.52962e-07 30.0003 	-6.33794e-06 	-7.52962e-07 30.0001 	-1.87693e-07 	-1.26597e-06 30.0003 	-6.35245e-06 	-7.76933e-07 30.0003 	-6.35245e-06 	-7.76933e-07 30.0003 	-6.35245e-06 	-7.76933e-07 30.0003 	-6.35245e-06 	-7.76932e-07 30.0001 	-1.88101e-07 	-1.29332e-06 30.0003 	-6.36622e-06 	-7.99806e-07 30.0003 	-6.36622e-06 	-7.99805e-07 30.0003 	-6.36622e-06 	-7.99805e-07 30.0003 	-6.36622e-06 	-7.99805e-07 30.0001 	-3.27606e-06 	-1.11607e-06 30.0003 	-6.37927e-06 	-8.21536e-07 30.0003 	-6.37927e-06 	-8.21536e-07 30.0003 	-6.37927e-06 	-8.21535e-07 30.0003 	-6.37926e-06 	-8.21535e-07 30.0001 	-3.30417e-06 	-1.14155e-06 30.0003 	-6.39159e-06 	-8.41974e-07 30.0003 	-6.39159e-06 	-8.41974e-07 30.0003 	-6.39159e-06 	-8.41973e-07 30.0003 	-6.39159e-06 	-8.41973e-07 30.0001 	-1.89267e-07 	-1.36687e-06 30.0003 	-6.4032e-06 	-8.61371e-07 30.0003 	-6.4032e-06 	-8.61371e-07 30.0003 	-6.4032e-06 	-8.61371e-07 30.0003 	-6.4032e-06 	-8.6137e-07 30.0001 	-1.89643e-07 	-1.38875e-06 30.0003 	-6.41411e-06 	-8.79812e-07 30.0003 	-6.41411e-06 	-8.79812e-07 30.0003 	-6.41411e-06 	-8.79811e-07 30.0003 	-6.4141e-06 	-8.79811e-07 30.0001 	-1.90009e-07 	-1.4094e-06 30.0003 	-6.42432e-06 	-8.973e-07 30.0003 	-6.42432e-06 	-8.97299e-07 30.0003 	-6.42432e-06 	-8.97299e-07 30.0003 	-6.42432e-06 	-8.97299e-07 30.0001 	-3.40846e-06 	-1.23055e-06 30.0003 	-6.43387e-06 	-9.13887e-07 30.0003 	-6.43387e-06 	-9.13887e-07 30.0003 	-6.43386e-06 	-9.13886e-07 30.0003 	-6.43386e-06 	-9.13886e-07 30.0001 	-3.43259e-06 	-1.24987e-06 30.0003 	-6.44279e-06 	-9.29575e-07 30.0003 	-6.44279e-06 	-9.29575e-07 30.0003 	-6.44279e-06 	-9.29574e-07 30.0003 	-6.44279e-06 	-9.29574e-07 30.0001 	-1.91096e-07 	-1.46457e-06 30.0003 	-6.45109e-06 	-9.44428e-07 30.0003 	-6.45109e-06 	-9.44427e-07 30.0003 	-6.45108e-06 	-9.44427e-07 30.0003 	-6.45108e-06 	-9.44427e-07 30.0001 	-3.47868e-06 	-1.28536e-06 30.0003 	-6.45874e-06 	-9.58436e-07 30.0003 	-6.45874e-06 	-9.58435e-07 30.0003 	-6.45874e-06 	-9.58435e-07 30.0003 	-6.45873e-06 	-9.58435e-07 30.0001 	-3.50074e-06 	-1.30163e-06 30.0003 	-6.46581e-06 	-9.7173e-07 30.0003 	-6.46581e-06 	-9.7173e-07 30.0003 	-6.46581e-06 	-9.71729e-07 30.0003 	-6.46581e-06 	-