# vtk DataFile Version 2.0
track0
ASCII
DATASET POLYDATA
POINTS 15780 float
-1.001 -0.05 0.0011
-1.0008 -0.05 0.0011
-1.0006 -0.05 0.0011
-1.0004 -0.05 0.0011
-1.0002 -0.05 0.0011
-1 -0.05 0.0011
-0.9875 -0.05 0.0011
-0.975 -0.05 0.0011
-0.9625 -0.05 0.0011
-0.95 -0.05 0.0011
-0.9375 -0.05 0.00109999
-0.925 -0.05 0.00109999
-0.9125 -0.05 0.00109999
-0.9 -0.05 0.00109999
-0.8875 -0.05 0.00109999
-0.875 -0.05 0.00109999
-0.8625 -0.05 0.00109999
-0.85 -0.05 0.00109999
-0.8375 -0.05 0.00109998
-0.825 -0.0500001 0.00109998
-0.8125 -0.0500001 0.00109998
-0.8 -0.0500001 0.00109998
-0.7875 -0.0500001 0.00109998
-0.775 -0.0500001 0.00109998
-0.7625 -0.0500001 0.00109998
-0.75 -0.0500001 0.00109998
-0.7375 -0.0500001 0.00109997
-0.725 -0.0500001 0.00109997
-0.7125 -0.0500001 0.00109997
-0.7 -0.0500001 0.00109997
-0.6875 -0.0500001 0.00109997
-0.675 -0.0500001 0.00109997
-0.6625 -0.0500001 0.00109997
-0.65 -0.0500001 0.00109996
-0.6375 -0.0500001 0.00109996
-0.625 -0.0500001 0.00109996
-0.6125 -0.0500001 0.00109996
-0.6 -0.0500001 0.00109996
-0.5875 -0.0500001 0.00109996
-0.575 -0.0500001 0.00109996
-0.5625 -0.0500001 0.00109996
-0.55 -0.0500001 0.00109995
-0.5375 -0.0500001 0.00109995
-0.525 -0.0500001 0.00109995
-0.5125 -0.0500001 0.00109995
-0.5 -0.0500001 0.00109995
-0.4875 -0.0500001 0.00109995
-0.475 -0.0500001 0.00109995
-0.4625 -0.0500001 0.00109994
-0.45 -0.0500002 0.00109994
-0.4375 -0.0500002 0.00109994
-0.425 -0.0500002 0.00109994
-0.4125 -0.0500002 0.00109994
-0.4 -0.0500002 0.00109994
-0.3875 -0.0500002 0.00109994
-0.375 -0.0500002 0.00109994
-0.3625 -0.0500002 0.00109993
-0.35 -0.0500002 0.00109993
-0.3375 -0.0500002 0.00109993
-0.325 -0.0500002 0.00109993
-0.3125 -0.0500002 0.00109993
-0.3 -0.0500002 0.00109993
-0.2875 -0.0500002 0.00109993
-0.275 -0.0500002 0.00109993
-0.2625 -0.0500002 0.00109992
-0.25 -0.0500002 0.00109992
-0.2375 -0.0500002 0.00109992
-0.225 -0.0500002 0.00109992
-0.2125 -0.0500002 0.00109992
-0.2 -0.0500002 0.00109992
-0.1875 -0.0500002 0.00109992
-0.175 -0.0500002 0.00109992
-0.1625 -0.0500002 0.00109991
-0.15 -0.0500002 0.00109991
-0.1375 -0.0500002 0.00109991
-0.125 -0.0500002 0.00109991
-0.1125 -0.0500002 0.00109991
-0.1 -0.0500002 0.00109991
-0.0875 -0.0500002 0.00109991
-0.075 -0.0500002 0.00109991
-0.0625 -0.0500002 0.00109991
-0.05 -0.0500003 0.00109991
-0.0375 -0.0500003 0.0010999
-0.025 -0.0500003 0.0010999
-0.0125 -0.0500003 0.0010999
2.10607e-13 -0.0500003 0.0010999
0.0125 -0.0500003 0.0010999
0.025 -0.0500003 0.0010999
0.0375 -0.0500003 0.0010999
0.05 -0.0500003 0.0010999
0.0625 -0.0500003 0.0010999
0.075 -0.0500003 0.0010999
0.0875 -0.0500003 0.0010999
0.1 -0.0500003 0.00109989
0.1125 -0.0500003 0.00109989
0.125 -0.0500003 0.00109989
0.1375 -0.0500003 0.00109989
0.15 -0.0500003 0.00109989
0.1625 -0.0500003 0.00109989
0.175 -0.0500003 0.00109989
0.1875 -0.0500003 0.00109989
0.2 -0.0500003 0.00109989
0.2125 -0.0500003 0.00109989
0.225 -0.0500003 0.00109989
0.2375 -0.0500003 0.00109989
0.25 -0.0500003 0.00109989
0.2625 -0.0500003 0.00109988
0.275 -0.0500003 0.00109988
0.2875 -0.0500003 0.00109988
0.3 -0.0500003 0.00109988
0.3125 -0.0500003 0.00109988
0.325 -0.0500003 0.00109988
0.3375 -0.0500003 0.00109988
0.35 -0.0500003 0.00109988
0.3625 -0.0500003 0.00109988
0.375 -0.0500003 0.00109988
0.3875 -0.0500003 0.00109988
0.4 -0.0500004 0.00109988
0.4125 -0.0500004 0.00109988
0.425 -0.0500004 0.00109988
0.4375 -0.0500004 0.00109988
0.45 -0.0500004 0.00109988
0.4625 -0.0500004 0.00109988
0.475 -0.0500004 0.00109988
0.4875 -0.0500004 0.00109988
0.5 -0.0500004 0.00109988
0.5125 -0.0500004 0.00109988
0.525 -0.0500004 0.00109988
0.5375 -0.0500004 0.00109988
0.55 -0.0500004 0.00109988
0.5625 -0.0500004 0.00109988
0.575 -0.0500004 0.00109987
0.5875 -0.0500004 0.00109987
0.6 -0.0500004 0.00109987
0.6125 -0.0500004 0.00109987
0.625 -0.0500004 0.00109987
0.6375 -0.0500004 0.00109987
0.65 -0.0500004 0.00109987
0.6625 -0.0500004 0.00109987
0.675 -0.0500004 0.00109987
0.6875 -0.0500004 0.00109987
0.7 -0.0500004 0.00109987
0.7125 -0.0500004 0.00109987
0.725 -0.0500004 0.00109987
0.7375 -0.0500004 0.00109987
0.75 -0.0500004 0.00109987
0.7625 -0.0500004 0.00109987
0.775 -0.0500004 0.00109987
0.7875 -0.0500004 0.00109987
0.8 -0.0500004 0.00109987
0.8125 -0.0500004 0.00109987
0.825 -0.0500004 0.00109987
0.8375 -0.0500004 0.00109987
0.85 -0.0500004 0.00109987
0.8625 -0.0500004 0.00109987
0.875 -0.0500004 0.00109987
0.8875 -0.0500004 0.00109987
0.9 -0.0500004 0.00109987
0.9125 -0.0500005 0.00109988
0.925 -0.0500005 0.00109988
0.9375 -0.0500005 0.00109988
0.95 -0.0500005 0.00109988
0.9625 -0.0500005 0.00109988
0.975 -0.0500005 0.00109988
0.9875 -0.0500005 0.00109988
1 -0.0500005 0.00109988
1.0125 -0.0500005 0.00109988
1.025 -0.0500005 0.00109988
1.0375 -0.0500005 0.00109988
1.05 -0.0500005 0.00109988
1.0625 -0.0500005 0.00109988
1.075 -0.0500005 0.00109988
1.0875 -0.0500005 0.00109988
1.1 -0.0500005 0.00109988
1.1125 -0.0500005 0.00109988
1.125 -0.0500005 0.00109988
1.1375 -0.0500005 0.00109988
1.15 -0.0500005 0.00109988
1.1625 -0.0500005 0.00109988
1.175 -0.0500005 0.00109988
1.1875 -0.0500005 0.00109988
1.2 -0.0500005 0.00109988
1.2125 -0.0500005 0.00109988
1.225 -0.0500005 0.00109988
1.2375 -0.0500005 0.00109989
1.25 -0.0500005 0.00109989
1.2625 -0.0500005 0.00109989
1.275 -0.0500005 0.00109989
1.2875 -0.0500005 0.00109989
1.3 -0.0500005 0.00109989
1.3125 -0.0500005 0.00109989
1.325 -0.0500005 0.00109989
1.3375 -0.0500005 0.00109989
1.35 -0.0500005 0.00109989
1.3625 -0.0500005 0.00109989
1.375 -0.0500005 0.00109989
1.3875 -0.0500005 0.00109989
1.4 -0.0500005 0.00109989
1.4125 -0.0500005 0.00109989
1.425 -0.0500005 0.00109989
1.4375 -0.0500005 0.0010999
1.45 -0.0500005 0.0010999
1.4625 -0.0500005 0.0010999
1.475 -0.0500005 0.0010999
1.4875 -0.0500005 0.0010999
1.5 -0.0500006 0.0010999
1.5125 -0.0500006 0.0010999
1.525 -0.0500006 0.0010999
1.5375 -0.0500006 0.0010999
1.55 -0.0500006 0.0010999
1.5625 -0.0500006 0.0010999
1.575 -0.0500006 0.0010999
1.5875 -0.0500006 0.0010999
1.6 -0.0500006 0.0010999
1.6125 -0.0500006 0.00109991
1.625 -0.0500006 0.00109991
1.6375 -0.0500006 0.00109991
1.65 -0.0500006 0.00109991
1.6625 -0.0500006 0.00109991
1.675 -0.0500006 0.00109991
1.6875 -0.0500006 0.00109991
1.7 -0.0500006 0.00109991
1.7125 -0.0500006 0.00109991
1.725 -0.0500006 0.00109991
1.7375 -0.0500006 0.00109991
1.75 -0.0500006 0.00109991
1.7625 -0.0500006 0.00109992
1.775 -0.0500006 0.00109992
1.7875 -0.0500006 0.00109992
1.8 -0.0500006 0.00109992
1.8125 -0.0500006 0.00109992
1.825 -0.0500006 0.00109992
1.8375 -0.0500006 0.00109992
1.85 -0.0500006 0.00109992
1.8625 -0.0500006 0.00109992
1.875 -0.0500006 0.00109992
1.8875 -0.0500006 0.00109992
1.9 -0.0500006 0.00109992
1.9125 -0.0500006 0.00109993
1.925 -0.0500006 0.00109993
1.9375 -0.0500006 0.00109993
1.95 -0.0500006 0.00109993
1.9625 -0.0500006 0.00109993
1.975 -0.0500006 0.00109993
1.9875 -0.0500006 0.00109993
2 -0.0500006 0.00109993
2.0125 -0.0500006 0.00109993
2.025 -0.0500006 0.00109993
2.0375 -0.0500006 0.00109993
2.05 -0.0500006 0.00109993
2.0625 -0.0500006 0.00109994
2.075 -0.0500006 0.00109994
2.0875 -0.0500006 0.00109994
2.1 -0.0500006 0.00109994
2.1125 -0.0500006 0.00109994
2.125 -0.0500006 0.00109994
2.1375 -0.0500006 0.00109994
2.15 -0.0500006 0.00109994
2.1625 -0.0500006 0.00109994
2.175 -0.0500007 0.00109994
2.1875 -0.0500007 0.00109994
2.2 -0.0500007 0.00109994
2.2125 -0.0500007 0.00109994
2.225 -0.0500007 0.00109995
2.2375 -0.0500007 0.00109995
2.25 -0.0500007 0.00109995
2.2625 -0.0500007 0.00109995
2.275 -0.0500007 0.00109995
2.2875 -0.0500007 0.00109995
2.3 -0.0500007 0.00109995
2.3125 -0.0500007 0.00109995
2.325 -0.0500007 0.00109995
2.3375 -0.0500007 0.00109995
2.35 -0.0500007 0.00109995
2.3625 -0.0500007 0.00109995
2.375 -0.0500007 0.00109995
2.3875 -0.0500007 0.00109996
2.4 -0.0500007 0.00109996
2.4125 -0.0500007 0.00109996
2.425 -0.0500007 0.00109996
2.4375 -0.0500007 0.00109996
2.45 -0.0500007 0.00109996
2.4625 -0.0500007 0.00109996
2.475 -0.0500007 0.00109996
2.4875 -0.0500007 0.00109996
2.5 -0.0500007 0.00109996
2.5125 -0.0500007 0.00109996
2.525 -0.0500007 0.00109996
2.5375 -0.0500007 0.00109996
2.55 -0.0500007 0.00109996
2.5625 -0.0500007 0.00109997
2.575 -0.0500007 0.00109997
2.5875 -0.0500007 0.00109997
2.6 -0.0500007 0.00109997
2.6125 -0.0500007 0.00109997
2.625 -0.0500007 0.00109997
2.6375 -0.0500007 0.00109997
2.65 -0.0500007 0.00109997
2.6625 -0.0500007 0.00109997
2.675 -0.0500007 0.00109997
2.6875 -0.0500007 0.00109997
2.7 -0.0500007 0.00109997
2.7125 -0.0500007 0.00109997
2.725 -0.0500007 0.00109997
2.7375 -0.0500007 0.00109997
2.75 -0.0500007 0.00109997
2.7625 -0.0500007 0.00109998
2.775 -0.0500007 0.00109998
2.7875 -0.0500007 0.00109998
2.8 -0.0500007 0.00109998
2.8125 -0.0500007 0.00109998
2.825 -0.0500007 0.00109998
2.8375 -0.0500007 0.00109998
2.85 -0.0500007 0.00109998
2.8625 -0.0500008 0.00109998
2.875 -0.0500008 0.00109998
2.8875 -0.0500008 0.00109998
2.9 -0.0500008 0.00109998
2.9125 -0.0500008 0.00109998
2.925 -0.0500008 0.00109998
2.9375 -0.0500008 0.00109998
2.95 -0.0500008 0.00109998
2.9625 -0.0500008 0.00109998
2.975 -0.0500008 0.00109998
2.9875 -0.0500008 0.00109998
3 -0.0500008 0.00109998
3.0125 -0.0500008 0.00109999
3.025 -0.0500008 0.00109999
3.0375 -0.0500008 0.00109999
3.05 -0.0500008 0.00109999
3.0625 -0.0500008 0.00109999
3.075 -0.0500008 0.00109999
3.0875 -0.0500008 0.00109999
3.1 -0.0500008 0.00109999
3.1125 -0.0500008 0.00109999
3.125 -0.0500008 0.00109999
3.1375 -0.0500008 0.00109999
3.15 -0.0500008 0.00109999
3.1625 -0.0500008 0.00109999
3.175 -0.0500008 0.00109999
3.1875 -0.0500008 0.00109999
3.2 -0.0500008 0.00109999
3.2125 -0.0500008 0.00109999
3.225 -0.0500008 0.00109999
3.2375 -0.0500008 0.00109999
3.25 -0.0500008 0.00109999
3.2625 -0.0500008 0.00109999
3.275 -0.0500008 0.00109999
3.2875 -0.0500008 0.00109999
3.3 -0.0500008 0.00109999
3.3125 -0.0500008 0.00109999
3.325 -0.0500008 0.00109999
3.3375 -0.0500008 0.00109999
3.35 -0.0500008 0.0011
3.3625 -0.0500008 0.0011
[...]
POINT_DATA 15780
 FIELD attributes 2
p 1 15780 float
-0.0310979 -0.0311139 -0.0311299 -0.031146 -0.031162 -0.0311781 -0.0321095 -0.0330333 -0.033957 -0.0348808 -0.0359012 -0.036965 -0.0380314 -0.0390977 -0.0401641 -0.0411838 -0.0421672 -0.043132 -0.0440968 -0.0450616 -0.0459748 -0.0468726 -0.0477752 -0.0486777 -0.0495803 -0.050477 -0.0513776 -0.0522791 -0.0531806 -0.0540821 -0.0549829 -0.0558904 -0.0567984 -0.0577063 -0.0586143 -0.0595218 -0.0604213 -0.0613188 -0.0622163 -0.0631138 -0.0640084 -0.0648875 -0.0657646 -0.0666418 -0.067519 -0.068394 -0.0692514 -0.0701067 -0.070962 -0.0718173 -0.0726707 -0.0735053 -0.0743374 -0.0751694 -0.0760015 -0.0768312 -0.0776394 -0.0784446 -0.0792498 -0.0800549 -0.0808573 -0.0816354 -0.0824096 -0.0831839 -0.0839582 -0.0847289 -0.085473 -0.0862129 -0.0869529 -0.0876929 -0.0884289 -0.0891362 -0.0898388 -0.0905414 -0.0912439 -0.0919419 -0.0926092 -0.0932713 -0.0939335 -0.0945957 -0.0952528 -0.0958773 -0.0964961 -0.097115 -0.0977338 -0.0983471 -0.0989261 -0.0994993 -0.100072 -0.100646 -0.101213 -0.101746 -0.102272 -0.102798 -0.103324 -0.103844 -0.104329 -0.104806 -0.105284 -0.105762 -0.106233 -0.106667 -0.107094 -0.107521 -0.107947 -0.108367 -0.108747 -0.10912 -0.109493 -0.109866 -0.110231 -0.110556 -0.110873 -0.11119 -0.111507 -0.111816 -0.112084 -0.112344 -0.112605 -0.112865 -0.113117 -0.113328 -0.11353 -0.113733 -0.113936 -0.11413 -0.114283 -0.114427 -0.114571 -0.114715 -0.114851 -0.114944 -0.115029 -0.115114 -0.1152 -0.115277 -0.115314 -0.115342 -0.115371 -0.1154 -0.115421 -0.115403 -0.115378 -0.115352 -0.115327 -0.115294 -0.115224 -0.115146 -0.115068 -0.11499 -0.114905 -0.114783 -0.114653 -0.114524 -0.114394 -0.114257 -0.114083 -0.113902 -0.113721 -0.11354 -0.113351 -0.113128 -0.112897 -0.112667 -0.112436 -0.112199 -0.111929 -0.111652 -0.111375 -0.111098 -0.110815 -0.1105 -0.110179 -0.109859 -0.109538 -0.109211 -0.108854 -0.108492 -0.108129 -0.107767 -0.107398 -0.107001 -0.106599 -0.106198 -0.105796 -0.105388 -0.104955 -0.104516 -0.104078 -0.10364 -0.103196 -0.10273 -0.102259 -0.101789 -0.101318 -0.100843 -0.100349 -0.0998511 -0.099353 -0.0988549 -0.0983527 -0.0978339 -0.0973114 -0.096789 -0.0962666 -0.0957403 -0.0951993 -0.094655 -0.0941106 -0.0935662 -0.0930181 -0.0924572 -0.0918934 -0.0913296 -0.0907659 -0.0901989 -0.0896213 -0.0890411 -0.0884609 -0.0878807 -0.0872976 -0.0867061 -0.0861127 -0.0855193 -0.0849259 -0.0843303 -0.0837284 -0.0831249 -0.0825213 -0.0819178 -0.0813123 -0.0807026 -0.0800918 -0.079481 -0.0788701 -0.0782579 -0.0776434 -0.077028 -0.0764126 -0.0757972 -0.0751805 -0.0745636 -0.0739461 -0.0733287 -0.0727113 -0.0720932 -0.0714764 -0.0708594 -0.0702424 -0.0696254 -0.0690079 -0.0683933 -0.067779 -0.0671646 -0.0665503 -0.0659359 -0.0653259 -0.0647162 -0.0641065 -0.0634968 -0.0628872 -0.0622832 -0.06168 -0.0610768 -0.0604736 -0.0598709 -0.059275 -0.0586799 -0.0580849 -0.0574899 -0.0568955 -0.056309 -0.0557238 -0.0551385 -0.0545532 -0.053969 -0.0533936 -0.0528194 -0.0522453 -0.0516712 -0.0510982 -0.0505348 -0.049973 -0.0494112 -0.0488495 -0.0482891 -0.0477391 -0.0471907 -0.0466424 -0.046094 -0.0455472 -0.0450112 -0.0444772 -0.0439431 -0.0434091 -0.0428768 -0.0423559 -0.041837 -0.041318 -0.0407991 -0.0402819 -0.0397766 -0.0392734 -0.0387702 -0.038267 -0.0377658 -0.0372767 -0.0367897 -0.0363027 -0.0358158 -0.0353308 -0.0348582 -0.0343878 -0.0339175 -0.0334471 -0.032979 -0.0325232 -0.0320698 -0.0316163 -0.0311628 -0.0307115 -0.0302727 -0.0298363 -0.0293999 -0.0289635 -0.0285294 -0.0281077 -0.0276884 -0.027269 -0.0268497 -0.0264327 -0.0260281 -0.0256259 -0.0252236 -0.0248214 -0.0244216 -0.024034 -0.0236489 -0.0232638 -0.0228787 -0.022496 -0.0221256 -0.0217577 -0.0213898 -0.0210219 -0.0206565 -0.0203033 -0.0199525 -0.0196018 -0.0192511 -0.0189026 -0.018566 -0.018232 -0.0178979 -0.0175639 -0.0172324 -0.016912 -0.0165941 -0.0162762 -0.0159583 -0.0156429 -0.0153383 -0.015036 -0.0147337 -0.0144314 -0.0141315 -0.0138422 -0.0135551 -0.0132681 -0.012981 -0.0126965 -0.0124222 -0.0121501 -0.011878 -0.011606 -0.0113362 -0.0110765 -0.010819 -0.0105615 -0.0103041 -0.0100489 -0.00980359 -0.00956043 -0.00931728 -0.00907412 -0.00883317 -0.00860169 -0.00837226 -0.00814283 -0.00791339 -0.00768605 -0.00746769 -0.00725144 -0.0070352 -0.00681895 -0.00660478 -0.00639925 -0.00619576 -0.00599226 -0.00578876 -0.00558726 -0.00539404 -0.00520293 -0.00501182 -0.0048207 -0.00463169 -0.00445065 -0.00427171 -0.00409278 -0.00391385 -0.00373696 -0.00356773 -0.00340055 -0.00323337 -0.00306619 -0.00290105 -0.002743 -0.00258683 -0.00243065 -0.00227447 -0.00212033 -0.00197282 -0.00182684 -0.00168086 -0.00153488 -0.00139068 -0.00125272 -0.00111636 -0.00098 -0.000843642 -0.000709058 -0.000580383 -0.000453318 -0.000326253 -0.000199188 -7.37677e-05 4.59004e-05 0.000163953 0.000282006 0.000400058 0.000516493 0.000627479 0.00073688 0.000846281 0.000955682 0.00106346 0.00116619 0.00126738 0.00136857 0.00146976 0.00156937 0.00166426 0.00175769 0.00185112 0.00194456 0.00203648 0.00212401 0.00221012 0.00229623 0.00238233 0.00246696 0.00254746 0.00262664 0.00270581 0.00278498 0.00286276 0.0029367 0.00300932 0.00308195 0.00315457 0.0032258 0.0032935 0.00335995 0.0034264 0.00349285 0.00355801 0.00361986 0.0036805 0.00374113 0.00380177 0.00386112 0.00391745 0.00397263 0.0040278 0.00408298 0.00413695 0.00418815 0.00423821 0.00428826 0.00433832 0.00438717 0.00443348 0.00447871 0.00452395 0.00456918 0.00461328 0.00465505 0.00469576 0.00473646 0.00477717 0.00481676 0.00485421 0.00489068 0.00492715 0.00496362 0.00499903 0.00503253 0.00506504 0.00509755 0.00513006 0.00516152 0.00519126 0.00522007 0.00524889 0.0052777 0.00530555 0.00533182 0.00535719 0.00538256 0.00540792 0.00543233 0.00545533 0.00547749 0.00549965 0.00552181 0.00554306 0.0055631 0.00558229 0.00560147 0.00562066 0.00563895 0.00565617 0.0056726 0.00568904 0.00570547 0.00572107 0.00573575 0.00574964 0.00576353 0.00577742 0.00579048 0.00580275 0.00581429 0.00582583 0.00583737 0.00584814 0.00585824 0.00586762 0.005877 0.00588638 0.00589498 0.00590305 0.00591044 0.00591783 0.00592523 0.0059319 0.00593815 0.00594372 0.0059493 0.00595487 0.00595973 0.00596427 0.00596819 0.0059721 0.00597602 0.00597926 0.00598231 0.00598472 0.00598713 0.00598954 0.00599128 0.00599291 0.00599395 0.00599499 0.00599604 0.00599645 0.00599685 0.00599665 0.00599645 0.00599625 0.00599543 0.00599466 0.00599336 0.00599205 0.00599074 0.00598885 0.00598712 0.00598483 0.00598254 0.00598024 0.00597737 0.00597472 0.00597155 0.00596838 0.00596521 0.00596149 0.00595807 0.00595412 0.00595018 0.00594624 0.00594175 0.00593762 0.00593301 0.0059284 0.00592379 0.00591867 0.00591398 0.00590881 0.00590363 0.00589846 0.00589277 0.00588758 0.00588194 0.00587629 0.00587064 0.00586451 0.00585894 0.00585291 0.00584688 0.00584085 0.00583434 0.00582845 0.00582212 0.00581579 0.00580946 0.00580267 0.00579656 0.00579001 0.00578346 0.00577691 0.00576991 0.00576364 0.00575695 0.00575026 0.00574357 0.00573645 0.00573011 0.00572335 0.0057166 0.00570984 0.00570266 0.00569631 0.00568955 0.0056828 0.00567605 0.00566888 0.0056626 0.00565592 0.00564924 0.00564256 0.00563547 0.00562932 0.00562277 0.00561623 0.00560968 0.00560274 0.00559678 0.00559044 0.0055841 0.00557775 0.00557102 0.00556532 0.00555923 0.00555314 0.00554706 0.00554059 0.00553519 0.00552942 0.00552364 0.00551787 0.00551172 0.0055067 0.00550128 0.00549587 0.00549046 0.00548467 0.00548004 0.00547502 0.00547001 0.005465 0.00545963 0.00545543 0.00545084 0.00544626 0.00544167 0.00543671 0.00543293 0.00542876 0.00542459 0.00542043 0.00541589 0.0054125 0.00540869 0.00540488 0.00540107 0.00539687 0.00539367 0.00539003 0.00538639 0.00538275 0.00537869 0.00537528 0.00537136 0.00536745 0.00536353 0.00535913 0.00535423 0.00534851 0.00534278 0.00533706 0.00533055 0.00532177 0.00531257 0.00530336 0.00529415 0.00528446 0.00525833 0.00522668 0.00519503 0.00516338 0.00512685 0.00511537 0.00511802 0.00512067 0.00512333 0.00514895 0.00523255 0.00530859 0.00538796 0.00545093 0.00549654 0.00548952 0.00548568 0.00548185 0.00547804 0.00547651 0.00550339 0.00553107 0.00555875 0.00557842 0.00559939 0.00561332 0.00563216 0.00565104 0.00566992 0.00568425 0.00574713 0.00581214 0.00587715 0.00594216 0.00599867 0.0060901 0.00616621 0.00624231 0.00631841 0.00632356 0.00630892 0.00628954 0.00627016 0.00625077 0.00624089 0.00604003 0.00581846 0.00559689 0.00537533 0.00504795 0.00456795 0.00407406 0.00358017 0.00308628 0.00262218 0.0023524 0.00207509 0.00179777 0.00152045 0.0012731 0.00117449 0.00106945 0.000964407 0.000859366 0.000773704 0.000667773 0.000556286 0.000444798 0.000333309 0.000255306
-0.0319472 -0.0319663 -0.0319854 -0.0320045 -0.0320236 -0.0320427 -0.0327436 -0.0336212 -0.0344039 -0.0351664 -0.0362246 -0.0372613 -0.0382517 -0.0392542 -0.0403136 -0.0412975 -0.0422587 -0.0432247 -0.0441654 -0.0451006 -0.0460065 -0.0469046 -0.0478107 -0.0487166 -0.0496217 -0.0505268 -0.0514185 -0.0523222 -0.0532309 -0.0541406 -0.055061 -0.0559661 -0.0568784 -0.0577901 -0.0586996 -0.0596147 -0.060516 -0.0614143 -0.0623139 -0.0632138 -0.06411 -0.064991 -0.065871 -0.0667506 -0.0676282 -0.0685041 -0.0693623 -0.0702179 -0.0710762 -0.0719349 -0.0727914 -0.0736255 -0.0744609 -0.0752957 -0.0761281 -0.0769617 -0.077769 -0.0785744 -0.0793821 -0.0801903 -0.0809971 -0.0817728 -0.0825499 -0.0833266 -0.084101 -0.084877 -0.0856178 -0.0863578 -0.0871 -0.0878428 -0.0885852 -0.0892876 -0.0899927 -0.0906975 -0.0914001 -0.0921055 -0.0927668 -0.093429 -0.0940932 -0.0947578 -0.0954236 -0.0960405 -0.0966615 -0.0972822 -0.097901 -0.0985237 -0.0990928 -0.0996658 -0.100241 -0.100816 -0.101395 -0.101914 -0.102442 -0.102969 -0.103495 -0.10403 -0.104502 -0.104979 -0.105458 -0.105936 -0.106421 -0.106844 -0.107271 -0.107697 -0.108124 -0.108555 -0.108925 -0.109298 -0.109671 -0.110043 -0.110418 -0.110733 -0.111049 -0.111366 -0.111683 -0.112001 -0.112261 -0.112521 -0.11278 -0.113039 -0.113299 -0.113502 -0.113704 -0.113906 -0.114109 -0.114311 -0.114455 -0.114599 -0.114743 -0.114886 -0.115029 -0.115112 -0.115197 -0.115283 -0.115368 -0.115455 -0.11548 -0.115508 -0.115537 -0.115566 -0.115599 -0.115567 -0.115541 -0.115515 -0.115489 -0.11547 -0.115385 -0.115307 -0.115228 -0.115148 -0.115075 -0.114939 -0.114806 -0.114673 -0.114543 -0.114416 -0.114229 -0.114048 -0.113864 -0.113679 -0.113499 -0.113263 -0.113029 -0.112796 -0.112565 -0.112335 -0.112054 -0.111776 -0.111496 -0.111216 -0.110939 -0.110615 -0.11029 -0.109966 -0.109645 -0.109324 -0.108959 -0.108597 -0.108232 -0.107866 -0.107503 -0.107099 -0.106695 -0.106291 -0.10589 -0.105486 -0.105046 -0.104607 -0.104167 -0.103727 -0.103289 -0.102812 -0.102339 -0.101867 -0.101396 -0.100927 -0.100422 -0.0999233 -0.0994222 -0.0989205 -0.0984255 -0.0978964 -0.0973701 -0.0968444 -0.0963215 -0.0958013 -0.0952517 -0.0947069 -0.0941595 -0.0936116 -0.0930685 -0.0925 -0.091933 -0.0913664 -0.0908023 -0.0902392 -0.0896546 -0.089074 -0.0884912 -0.0879079 -0.0873284 -0.0867306 -0.0861342 -0.0855383 -0.0849445 -0.0843518 -0.0837442 -0.0831403 -0.0825343 -0.0819279 -0.0813252 -0.0807103 -0.0800968 -0.0794837 -0.0788726 -0.0782624 -0.0776433 -0.0770276 -0.07641 -0.075792 -0.0751774 -0.0745563 -0.0739365 -0.0733171 -0.0726994 -0.0720826 -0.0714623 -0.070845 -0.0702262 -0.069607 -0.0689908 -0.0683733 -0.067757 -0.067141 -0.0665265 -0.0659129 -0.0653003 -0.0646904 -0.0640792 -0.0634677 -0.0628588 -0.0622527 -0.0616479 -0.0610433 -0.0604399 -0.0598375 -0.0592398 -0.0586447 -0.0580484 -0.0574519 -0.0568577 -0.05627 -0.0556834 -0.055097 -0.0545116 -0.0539272 -0.0533508 -0.0527766 -0.0522015 -0.0516262 -0.0510529 -0.050489 -0.0499263 -0.0493636 -0.0488018 -0.0482409 -0.0476906 -0.0471422 -0.0465931 -0.0460439 -0.0454964 -0.0449606 -0.0444258 -0.0438912 -0.0433571 -0.0428239 -0.0423034 -0.0417844 -0.041265 -0.0407455 -0.0402275 -0.0397228 -0.0392191 -0.0387155 -0.0382123 -0.03771 -0.0372217 -0.0367347 -0.0362475 -0.0357602 -0.0352741 -0.0348025 -0.034332 -0.0338614 -0.0333911 -0.0329216 -0.0324671 -0.0320136 -0.0315601 -0.0311065 -0.030654 -0.0302165 -0.0297801 -0.0293437 -0.0289073 -0.0284718 -0.0280516 -0.0276324 -0.0272131 -0.0267939 -0.0263756 -0.0259725 -0.0255705 -0.0251684 -0.0247662 -0.0243649 -0.0239789 -0.0235939 -0.0232089 -0.0228239 -0.02244 -0.0220709 -0.0217033 -0.0213356 -0.0209678 -0.0206012 -0.0202492 -0.0198986 -0.019548 -0.0191976 -0.0188482 -0.0185128 -0.0181789 -0.017845 -0.017511 -0.0171783 -0.0168597 -0.016542 -0.0162242 -0.0159065 -0.0155898 -0.0152873 -0.0149854 -0.0146833 -0.0143812 -0.0140794 -0.0137929 -0.013506 -0.0132193 -0.0129326 -0.0126457 -0.0123744 -0.0121027 -0.011831 -0.011559 -0.0112867 -0.0110297 -0.0107723 -0.0105152 -0.0102582 -0.0100008 -0.00975798 -0.00951529 -0.00927251 -0.0090294 -0.00878649 -0.00855751 -0.00832816 -0.00809921 -0.00787036 -0.00764101 -0.00742533 -0.00720981 -0.00699418 -0.00677805 -0.00656219 -0.0063591 -0.00615571 -0.00595284 -0.0057501 -0.00554706 -0.00535607 -0.00516571 -0.00497522 -0.00478419 -0.00459371 -0.00441456 -0.00423568 -0.0040572 -0.00387882 -0.0037008 -0.00353279 -0.00336585 -0.00319886 -0.00303172 -0.00286539 -0.00270877 -0.00255266 -0.00239666 -0.00224067 -0.00208534 -0.00193964 -0.00179407 -0.00164843 -0.00150257 -0.001357 -0.00122159 -0.00108536 -0.000949515 -0.000813756 -0.000677235 -0.000551271 -0.00042487 -0.000298368 -0.000171415 -4.41736e-05 7.30977e-05 0.000191065 0.000308593 0.000426022 0.00054419 0.000653007 0.00076186 0.0008708 0.000980133 0.00108948 0.0011902 0.00129132 0.00139209 0.00149279 0.00159386 0.00168686 0.00177982 0.00187286 0.00196622 0.00205953 0.00214519 0.00223122 0.00231694 0.00240259 0.00248856 0.0025673 0.00264601 0.00272479 0.0028039 0.00288294 0.00295511 0.00302767 0.0030999 0.00317206 0.00324454 0.0033106 0.00337661 0.00344269 0.00350908 0.0035754 0.00363564 0.00369622 0.00375652 0.00381677 0.00387727 0.00393207 0.0039869 0.00404179 0.00409691 0.00415205 0.00420166 0.00425166 0.00430142 0.00435113 0.00440116 0.00444594 0.00449082 0.00453575 0.00458093 0.00462618 0.00466639 0.00470704 0.00474745 0.00478781 0.00482853 0.00486453 0.00490066 0.00493685 0.00497327 0.0050098 0.00504181 0.00507427 0.00510651 0.00513869 0.00517127 0.0051996 0.00522811 0.00525666 0.00528543 0.00531436 0.00533921 0.00536453 0.00538966 0.00541473 0.00544021 0.00546188 0.00548376 0.00550569 0.00552781 0.00555013 0.00556879 0.00558794 0.0056069 0.00562582 0.00564516 0.00566109 0.00567727 0.00569349 0.00570989 0.00572652 0.00573987 0.00575372 0.00576741 0.00578105 0.00579513 0.00580616 0.00581747 0.00582881 0.00584032 0.00585209 0.00586092 0.00587027 0.00587946 0.00588861 0.00589822 0.00590509 0.00591226 0.00591948 0.00592684 0.0059345 0.00593951 0.00594506 0.00595046 0.00595584 0.00596168 0.00596506 0.00596879 0.00597254 0.00597643 0.00598066 0.0059825 0.00598488 0.00598714 0.00598937 0.00599209 0.00599259 0.00599346 0.00599435 0.00599537 0.00599675 0.00599597 0.00599575 0.00599541 0.00599505 0.0059952 0.00599331 0.00599185 0.00599042 0.00598909 0.00598818 0.00598531 0.005983 0.00598058 0.00597814 0.00597622 0.00597249 0.00596918 0.00596588 0.00596269 0.00595991 0.00595539 0.00595143 0.00594737 0.0059433 0.00593974 0.00593457 0.00592983 0.00592512 0.00592049 0.0059163 0.00591054 0.00590535 0.00590008 0.00589479 0.00589003 0.00588382 0.00587807 0.00587233 0.00586667 0.00586146 0.00585485 0.0058488 0.00584268 0.00583655 0.00583096 0.00582406 0.00581763 0.00581123 0.00580488 0.00579901 0.00579188 0.00578532 0.00577869 0.00577206 0.00576597 0.00575871 0.00575194 0.00574518 0.00573848 0.00573227 0.00572492 0.00571815 0.00571134 0.0057045 0.00569823 0.0056909 0.00568409 0.00567728 0.00567051 0.00566427 0.00565699 0.0056503 0.00564357 0.00563682 0.00563065 0.00562353 0.00561693 0.00561034 0.00560379 0.00559777 0.00559083 0.00558447 0.00557809 0.0055717 0.00556589 0.00555922 0.00555309 0.00554698 0.00554088 0.00553536 0.00552898 0.0055232 0.0055174 0.0055116 0.00550639 0.00550039 0.00549497 0.00548955 0.00548413 0.00547931 0.00547369 0.00546868 0.00546367 0.00545867 0.00545427 0.0054491 0.00544456 0.00544 0.00543542 0.00543149 0.00542672 0.00542256 0.00541848 0.00541441 0.00541096 0.00540659 0.005403 0.00539937 0.00539558 0.0053926 0.00538843 0.00538485 0.00538162 0.00537847 0.00537591 0.00537158 0.00536877 0.00536577 0.00536199 0.00535972 0.00535439 0.00534914 0.00534615 0.00534369 0.00534125 0.00533221 0.00533048 0.00532756 0.00531962 0.00531858 0.00530426 0.00527969 0.00527518 0.0052754 0.00526467 0.00522177 0.00523334 0.00524371 0.00524898 0.00531709 0.00541055 0.00547411 0.00553769 0.00557567 0.00552936 0.00551014 0.0055031 0.00549606 0.00548856 0.00549255 0.0055101 0.00552826 0.00554642 0.00555812 0.00556939 0.00557044 0.00557149 0.00557255 0.00557347 0.00557417 0.005599 0.00562795 0.00565698 0.00568602 0.0056594 0.00569755 0.00576019 0.00582321 0.00588622 0.00596621 0.00618048 0.00626949 0.00635195 0.00642806 0.00632113 0.00635699 0.00633761 0.00632115 0.00631169 0.00625631 0.00620976 0.0059882 0.00576663 0.00553249 0.00503888 0.00469925 0.00420536 0.00371147 0.00321491 0.0025961 0.00241446 0.00213715 0.00185983 0.00158251 0.0012427 0.00122359 0.00111855 0.00101351 0.000908465 0.000751273 0.000715264 0.000603778 0.000492292 0.000380806 0.000206779