# vtk DataFile Version 2.0
track0
ASCII
DATASET POLYDATA
POINTS 15780 float
-1.001 -0.05 0.0011
-1.0008 -0.05 0.0011
-1.0006 -0.05 0.0011
-1.0004 -0.05 0.0011
-1.0002 -0.05 0.0011
-1 -0.05 0.0011
-0.9875 -0.05 0.0011
-0.975 -0.05 0.0011
-0.9625 -0.05 0.0011
-0.95 -0.05 0.0011
-0.9375 -0.05 0.00109999
-0.925 -0.05 0.00109999
-0.9125 -0.05 0.00109999
-0.9 -0.05 0.00109999
-0.8875 -0.05 0.00109999
-0.875 -0.05 0.00109999
-0.8625 -0.05 0.00109999
-0.85 -0.05 0.00109999
-0.8375 -0.05 0.00109998
-0.825 -0.0500001 0.00109998
-0.8125 -0.0500001 0.00109998
-0.8 -0.0500001 0.00109998
-0.7875 -0.0500001 0.00109998
-0.775 -0.0500001 0.00109998
-0.7625 -0.0500001 0.00109998
-0.75 -0.0500001 0.00109998
-0.7375 -0.0500001 0.00109997
-0.725 -0.0500001 0.00109997
-0.7125 -0.0500001 0.00109997
-0.7 -0.0500001 0.00109997
-0.6875 -0.0500001 0.00109997
-0.675 -0.0500001 0.00109997
-0.6625 -0.0500001 0.00109997
-0.65 -0.0500001 0.00109996
-0.6375 -0.0500001 0.00109996
-0.625 -0.0500001 0.00109996
-0.6125 -0.0500001 0.00109996
-0.6 -0.0500001 0.00109996
-0.5875 -0.0500001 0.00109996
-0.575 -0.0500001 0.00109996
-0.5625 -0.0500001 0.00109996
-0.55 -0.0500001 0.00109995
-0.5375 -0.0500001 0.00109995
-0.525 -0.0500001 0.00109995
-0.5125 -0.0500001 0.00109995
-0.5 -0.0500001 0.00109995
-0.4875 -0.0500001 0.00109995
-0.475 -0.0500001 0.00109995
-0.4625 -0.0500001 0.00109994
-0.45 -0.0500002 0.00109994
-0.4375 -0.0500002 0.00109994
-0.425 -0.0500002 0.00109994
-0.4125 -0.0500002 0.00109994
-0.4 -0.0500002 0.00109994
-0.3875 -0.0500002 0.00109994
-0.375 -0.0500002 0.00109994
-0.3625 -0.0500002 0.00109993
-0.35 -0.0500002 0.00109993
-0.3375 -0.0500002 0.00109993
-0.325 -0.0500002 0.00109993
-0.3125 -0.0500002 0.00109993
-0.3 -0.0500002 0.00109993
-0.2875 -0.0500002 0.00109993
-0.275 -0.0500002 0.00109993
-0.2625 -0.0500002 0.00109992
-0.25 -0.0500002 0.00109992
-0.2375 -0.0500002 0.00109992
-0.225 -0.0500002 0.00109992
-0.2125 -0.0500002 0.00109992
-0.2 -0.0500002 0.00109992
-0.1875 -0.0500002 0.00109992
-0.175 -0.0500002 0.00109992
-0.1625 -0.0500002 0.00109991
-0.15 -0.0500002 0.00109991
-0.1375 -0.0500002 0.00109991
-0.125 -0.0500002 0.00109991
-0.1125 -0.0500002 0.00109991
-0.1 -0.0500002 0.00109991
-0.0875 -0.0500002 0.00109991
-0.075 -0.0500002 0.00109991
-0.0625 -0.0500002 0.00109991
-0.05 -0.0500003 0.00109991
-0.0375 -0.0500003 0.0010999
-0.025 -0.0500003 0.0010999
-0.0125 -0.0500003 0.0010999
2.10607e-13 -0.0500003 0.0010999
0.0125 -0.0500003 0.0010999
0.025 -0.0500003 0.0010999
0.0375 -0.0500003 0.0010999
0.05 -0.0500003 0.0010999
0.0625 -0.0500003 0.0010999
0.075 -0.0500003 0.0010999
0.0875 -0.0500003 0.0010999
0.1 -0.0500003 0.00109989
0.1125 -0.0500003 0.00109989
0.125 -0.0500003 0.00109989
0.1375 -0.0500003 0.00109989
0.15 -0.0500003 0.00109989
0.1625 -0.0500003 0.00109989
0.175 -0.0500003 0.00109989
0.1875 -0.0500003 0.00109989
0.2 -0.0500003 0.00109989
0.2125 -0.0500003 0.00109989
0.225 -0.0500003 0.00109989
0.2375 -0.0500003 0.00109989
0.25 -0.0500003 0.00109989
0.2625 -0.0500003 0.00109988
0.275 -0.0500003 0.00109988
0.2875 -0.0500003 0.00109988
0.3 -0.0500003 0.00109988
0.3125 -0.0500003 0.00109988
0.325 -0.0500003 0.00109988
0.3375 -0.0500003 0.00109988
0.35 -0.0500003 0.00109988
0.3625 -0.0500003 0.00109988
0.375 -0.0500003 0.00109988
0.3875 -0.0500003 0.00109988
0.4 -0.0500004 0.00109988
0.4125 -0.0500004 0.00109988
0.425 -0.0500004 0.00109988
0.4375 -0.0500004 0.00109988
0.45 -0.0500004 0.00109988
0.4625 -0.0500004 0.00109988
0.475 -0.0500004 0.00109988
0.4875 -0.0500004 0.00109988
0.5 -0.0500004 0.00109988
0.5125 -0.0500004 0.00109988
0.525 -0.0500004 0.00109988
0.5375 -0.0500004 0.00109988
0.55 -0.0500004 0.00109988
0.5625 -0.0500004 0.00109988
0.575 -0.0500004 0.00109987
0.5875 -0.0500004 0.00109987
0.6 -0.0500004 0.00109987
0.6125 -0.0500004 0.00109987
0.625 -0.0500004 0.00109987
0.6375 -0.0500004 0.00109987
0.65 -0.0500004 0.00109987
0.6625 -0.0500004 0.00109987
0.675 -0.0500004 0.00109987
0.6875 -0.0500004 0.00109987
0.7 -0.0500004 0.00109987
0.7125 -0.0500004 0.00109987
0.725 -0.0500004 0.00109987
0.7375 -0.0500004 0.00109987
0.75 -0.0500004 0.00109987
0.7625 -0.0500004 0.00109987
0.775 -0.0500004 0.00109987
0.7875 -0.0500004 0.00109987
0.8 -0.0500004 0.00109987
0.8125 -0.0500004 0.00109987
0.825 -0.0500004 0.00109987
0.8375 -0.0500004 0.00109987
0.85 -0.0500004 0.00109987
0.8625 -0.0500004 0.00109987
0.875 -0.0500004 0.00109987
0.8875 -0.0500004 0.00109987
0.9 -0.0500004 0.00109987
0.9125 -0.0500005 0.00109988
0.925 -0.0500005 0.00109988
0.9375 -0.0500005 0.00109988
0.95 -0.0500005 0.00109988
0.9625 -0.0500005 0.00109988
0.975 -0.0500005 0.00109988
0.9875 -0.0500005 0.00109988
1 -0.0500005 0.00109988
1.0125 -0.0500005 0.00109988
1.025 -0.0500005 0.00109988
1.0375 -0.0500005 0.00109988
1.05 -0.0500005 0.00109988
1.0625 -0.0500005 0.00109988
1.075 -0.0500005 0.00109988
1.0875 -0.0500005 0.00109988
1.1 -0.0500005 0.00109988
1.1125 -0.0500005 0.00109988
1.125 -0.0500005 0.00109988
1.1375 -0.0500005 0.00109988
1.15 -0.0500005 0.00109988
1.1625 -0.0500005 0.00109988
1.175 -0.0500005 0.00109988
1.1875 -0.0500005 0.00109988
1.2 -0.0500005 0.00109988
1.2125 -0.0500005 0.00109988
1.225 -0.0500005 0.00109988
1.2375 -0.0500005 0.00109989
1.25 -0.0500005 0.00109989
1.2625 -0.0500005 0.00109989
1.275 -0.0500005 0.00109989
1.2875 -0.0500005 0.00109989
1.3 -0.0500005 0.00109989
1.3125 -0.0500005 0.00109989
1.325 -0.0500005 0.00109989
1.3375 -0.0500005 0.00109989
1.35 -0.0500005 0.00109989
1.3625 -0.0500005 0.00109989
1.375 -0.0500005 0.00109989
1.3875 -0.0500005 0.00109989
1.4 -0.0500005 0.00109989
1.4125 -0.0500005 0.00109989
1.425 -0.0500005 0.00109989
1.4375 -0.0500005 0.0010999
1.45 -0.0500005 0.0010999
1.4625 -0.0500005 0.0010999
1.475 -0.0500005 0.0010999
1.4875 -0.0500005 0.0010999
1.5 -0.0500006 0.0010999
1.5125 -0.0500006 0.0010999
1.525 -0.0500006 0.0010999
1.5375 -0.0500006 0.0010999
1.55 -0.0500006 0.0010999
1.5625 -0.0500006 0.0010999
1.575 -0.0500006 0.0010999
1.5875 -0.0500006 0.0010999
1.6 -0.0500006 0.0010999
1.6125 -0.0500006 0.00109991
1.625 -0.0500006 0.00109991
1.6375 -0.0500006 0.00109991
1.65 -0.0500006 0.00109991
1.6625 -0.0500006 0.00109991
1.675 -0.0500006 0.00109991
1.6875 -0.0500006 0.00109991
1.7 -0.0500006 0.00109991
1.7125 -0.0500006 0.00109991
1.725 -0.0500006 0.00109991
1.7375 -0.0500006 0.00109991
1.75 -0.0500006 0.00109991
1.7625 -0.0500006 0.00109992
1.775 -0.0500006 0.00109992
1.7875 -0.0500006 0.00109992
1.8 -0.0500006 0.00109992
1.8125 -0.0500006 0.00109992
1.825 -0.0500006 0.00109992
1.8375 -0.0500006 0.00109992
1.85 -0.0500006 0.00109992
1.8625 -0.0500006 0.00109992
1.875 -0.0500006 0.00109992
1.8875 -0.0500006 0.00109992
1.9 -0.0500006 0.00109992
1.9125 -0.0500006 0.00109993
1.925 -0.0500006 0.00109993
1.9375 -0.0500006 0.00109993
1.95 -0.0500006 0.00109993
1.9625 -0.0500006 0.00109993
1.975 -0.0500006 0.00109993
1.9875 -0.0500006 0.00109993
2 -0.0500006 0.00109993
2.0125 -0.0500006 0.00109993
2.025 -0.0500006 0.00109993
2.0375 -0.0500006 0.00109993
2.05 -0.0500006 0.00109993
2.0625 -0.0500006 0.00109994
2.075 -0.0500006 0.00109994
2.0875 -0.0500006 0.00109994
2.1 -0.0500006 0.00109994
2.1125 -0.0500006 0.00109994
2.125 -0.0500006 0.00109994
2.1375 -0.0500006 0.00109994
2.15 -0.0500006 0.00109994
2.1625 -0.0500006 0.00109994
2.175 -0.0500007 0.00109994
2.1875 -0.0500007 0.00109994
2.2 -0.0500007 0.00109994
2.2125 -0.0500007 0.00109994
2.225 -0.0500007 0.00109995
2.2375 -0.0500007 0.00109995
2.25 -0.0500007 0.00109995
2.2625 -0.0500007 0.00109995
2.275 -0.0500007 0.00109995
2.2875 -0.0500007 0.00109995
2.3 -0.0500007 0.00109995
2.3125 -0.0500007 0.00109995
2.325 -0.0500007 0.00109995
2.3375 -0.0500007 0.00109995
2.35 -0.0500007 0.00109995
2.3625 -0.0500007 0.00109995
2.375 -0.0500007 0.00109995
2.3875 -0.0500007 0.00109996
2.4 -0.0500007 0.00109996
2.4125 -0.0500007 0.00109996
2.425 -0.0500007 0.00109996
2.4375 -0.0500007 0.00109996
2.45 -0.0500007 0.00109996
2.4625 -0.0500007 0.00109996
2.475 -0.0500007 0.00109996
2.4875 -0.0500007 0.00109996
2.5 -0.0500007 0.00109996
2.5125 -0.0500007 0.00109996
2.525 -0.0500007 0.00109996
2.5375 -0.0500007 0.00109996
2.55 -0.0500007 0.00109996
2.5625 -0.0500007 0.00109997
2.575 -0.0500007 0.00109997
2.5875 -0.0500007 0.00109997
2.6 -0.0500007 0.00109997
2.6125 -0.0500007 0.00109997
2.625 -0.0500007 0.00109997
2.6375 -0.0500007 0.00109997
2.65 -0.0500007 0.00109997
2.6625 -0.0500007 0.00109997
2.675 -0.0500007 0.00109997
2.6875 -0.0500007 0.00109997
2.7 -0.0500007 0.00109997
2.7125 -0.0500007 0.00109997
2.725 -0.0500007 0.00109997
2.7375 -0.0500007 0.00109997
2.75 -0.0500007 0.00109997
2.7625 -0.0500007 0.00109998
2.775 -0.0500007 0.00109998
2.7875 -0.0500007 0.00109998
2.8 -0.0500007 0.00109998
2.8125 -0.0500007 0.00109998
2.825 -0.0500007 0.00109998
2.8375 -0.0500007 0.00109998
2.85 -0.0500007 0.00109998
2.8625 -0.0500008 0.00109998
2.875 -0.0500008 0.00109998
2.8875 -0.0500008 0.00109998
2.9 -0.0500008 0.00109998
2.9125 -0.0500008 0.00109998
2.925 -0.0500008 0.00109998
2.9375 -0.0500008 0.00109998
2.95 -0.0500008 0.00109998
2.9625 -0.0500008 0.00109998
2.975 -0.0500008 0.00109998
2.9875 -0.0500008 0.00109998
3 -0.0500008 0.00109998
3.0125 -0.0500008 0.00109999
3.025 -0.0500008 0.00109999
3.0375 -0.0500008 0.00109999
3.05 -0.0500008 0.00109999
3.0625 -0.0500008 0.00109999
3.075 -0.0500008 0.00109999
3.0875 -0.0500008 0.00109999
3.1 -0.0500008 0.00109999
3.1125 -0.0500008 0.00109999
3.125 -0.0500008 0.00109999
3.1375 -0.0500008 0.00109999
3.15 -0.0500008 0.00109999
3.1625 -0.0500008 0.00109999
3.175 -0.0500008 0.00109999
3.1875 -0.0500008 0.00109999
3.2 -0.0500008 0.00109999
3.2125 -0.0500008 0.00109999
3.225 -0.0500008 0.00109999
3.2375 -0.0500008 0.00109999
3.25 -0.0500008 0.00109999
3.2625 -0.0500008 0.00109999
3.275 -0.0500008 0.00109999
3.2875 -0.0500008 0.00109999
3.3 -0.0500008 0.00109999
3.3125 -0.0500008 0.00109999
3.325 -0.0500008 0.00109999
3.3375 -0.0500008 0.00109999
3.35 -0.0500008 0.0011
3.3625 -0.0500008 0.0011
[...]
POINT_DATA 15780
 FIELD attributes 1
U 3 15780 float
30.0002 	-7.01798e-06 	-6.30587e-06 30.0002 	-6.84349e-06 	-6.51453e-06 30.0002 	-6.669e-06 	-6.7232e-06 30.0002 	-6.49451e-06 	-6.93187e-06 30.0002 	-6.32002e-06 	-7.14054e-06 30.0002 	-6.14553e-06 	-7.3492e-06 30.0004 	-1.23853e-05 	-1.261e-06 30.0004 	-1.23853e-05 	-1.261e-06 30.0004 	-1.23853e-05 	-1.261e-06 30.0004 	-1.23853e-05 	-1.261e-06 30.0002 	-7.05982e-08 	-6.84366e-06 30.0005 	-1.07092e-05 	-1.68706e-06 30.0005 	-1.07092e-05 	-1.68706e-06 30.0005 	-1.07092e-05 	-1.68705e-06 30.0005 	-1.07092e-05 	-1.68705e-06 30.0002 	-7.22786e-08 	-6.59607e-06 30.0005 	-9.95864e-06 	-2.08023e-06 30.0005 	-9.95863e-06 	-2.08023e-06 30.0005 	-9.95862e-06 	-2.08023e-06 30.0005 	-9.95861e-06 	-2.08023e-06 30.0003 	-4.59316e-06 	-6.24725e-06 30.0005 	-9.69188e-06 	-2.34896e-06 30.0005 	-9.69187e-06 	-2.34896e-06 30.0005 	-9.69186e-06 	-2.34895e-06 30.0005 	-9.69186e-06 	-2.34895e-06 30.0003 	-7.58743e-08 	-6.57615e-06 30.0005 	-9.52369e-06 	-2.49783e-06 30.0005 	-9.52368e-06 	-2.49783e-06 30.0005 	-9.52367e-06 	-2.49783e-06 30.0005 	-9.52366e-06 	-2.49782e-06 30.0003 	-7.76318e-08 	-6.52626e-06 30.0005 	-9.38734e-06 	-2.55607e-06 30.0005 	-9.38733e-06 	-2.55607e-06 30.0005 	-9.38732e-06 	-2.55607e-06 30.0005 	-9.38731e-06 	-2.55606e-06 30.0003 	-4.26698e-06 	-6.08528e-06 30.0005 	-9.27993e-06 	-2.5583e-06 30.0005 	-9.27992e-06 	-2.55829e-06 30.0005 	-9.27991e-06 	-2.55829e-06 30.0005 	-9.2799e-06 	-2.55829e-06 30.0003 	-4.19938e-06 	-5.97789e-06 30.0006 	-9.18773e-06 	-2.53043e-06 30.0006 	-9.18772e-06 	-2.53043e-06 30.0006 	-9.18771e-06 	-2.53042e-06 30.0006 	-9.1877e-06 	-2.53042e-06 30.0003 	-8.29386e-08 	-6.20126e-06 30.0006 	-9.09767e-06 	-2.48118e-06 30.0006 	-9.09766e-06 	-2.48118e-06 30.0006 	-9.09765e-06 	-2.48118e-06 30.0006 	-9.09764e-06 	-2.48118e-06 30.0003 	-8.46954e-08 	-6.05423e-06 30.0006 	-9.00522e-06 	-2.41361e-06 30.0006 	-9.00521e-06 	-2.41361e-06 30.0006 	-9.00521e-06 	-2.4136e-06 30.0006 	-9.0052e-06 	-2.4136e-06 30.0003 	-8.64574e-08 	-5.88782e-06 30.0006 	-8.90909e-06 	-2.32972e-06 30.0006 	-8.90908e-06 	-2.32972e-06 30.0006 	-8.90908e-06 	-2.32972e-06 30.0006 	-8.90907e-06 	-2.32972e-06 30.0003 	-3.93798e-06 	-5.36346e-06 30.0006 	-8.80906e-06 	-2.23274e-06 30.0006 	-8.80906e-06 	-2.23274e-06 30.0006 	-8.80905e-06 	-2.23274e-06 30.0006 	-8.80904e-06 	-2.23274e-06 30.0003 	-3.8642e-06 	-5.16475e-06 30.0006 	-8.70478e-06 	-2.12414e-06 30.0006 	-8.70478e-06 	-2.12414e-06 30.0006 	-8.70477e-06 	-2.12414e-06 30.0006 	-8.70476e-06 	-2.12413e-06 30.0003 	-9.17387e-08 	-5.28457e-06 30.0006 	-8.59661e-06 	-2.00508e-06 30.0006 	-8.59661e-06 	-2.00507e-06 30.0006 	-8.5966e-06 	-2.00507e-06 30.0006 	-8.59659e-06 	-2.00507e-06 30.0003 	-3.7046e-06 	-4.71939e-06 30.0007 	-8.48526e-06 	-1.87668e-06 30.0007 	-8.48525e-06 	-1.87668e-06 30.0007 	-8.48525e-06 	-1.87668e-06 30.0007 	-8.48524e-06 	-1.87667e-06 30.0003 	-3.61952e-06 	-4.47431e-06 30.0007 	-8.37193e-06 	-1.73884e-06 30.0007 	-8.37193e-06 	-1.73884e-06 30.0007 	-8.37192e-06 	-1.73884e-06 30.0007 	-8.37192e-06 	-1.73884e-06 30.0004 	-9.70092e-08 	-4.54319e-06 30.0007 	-8.2604e-06 	-1.59804e-06 30.0007 	-8.2604e-06 	-1.59804e-06 30.0007 	-8.26039e-06 	-1.59803e-06 30.0007 	-8.26039e-06 	-1.59803e-06 30.0004 	-9.87697e-08 	-4.27124e-06 30.0007 	-8.14843e-06 	-1.46324e-06 30.0007 	-8.14842e-06 	-1.46323e-06 30.0007 	-8.14842e-06 	-1.46323e-06 30.0007 	-8.14841e-06 	-1.46323e-06 30.0004 	-1.00521e-07 	-3.98927e-06 30.0007 	-8.02038e-06 	-1.32072e-06 30.0007 	-8.02038e-06 	-1.32072e-06 30.0007 	-8.02037e-06 	-1.32072e-06 30.0007 	-8.02037e-06 	-1.32072e-06 30.0004 	-3.25123e-06 	-3.37795e-06 30.0007 	-7.88161e-06 	-1.16801e-06 30.0007 	-7.88161e-06 	-1.16801e-06 30.0007 	-7.88161e-06 	-1.16801e-06 30.0007 	-7.8816e-06 	-1.16801e-06 30.0004 	-1.03985e-07 	-3.40289e-06 30.0007 	-7.74572e-06 	-1.00788e-06 30.0007 	-7.74572e-06 	-1.00788e-06 30.0007 	-7.74572e-06 	-1.00788e-06 30.0007 	-7.74571e-06 	-1.00788e-06 30.0004 	-1.05718e-07 	-3.10328e-06 30.0007 	-7.61162e-06 	-8.41867e-07 30.0007 	-7.61161e-06 	-8.41867e-07 30.0007 	-7.61161e-06 	-8.41866e-07 30.0007 	-7.61161e-06 	-8.41866e-07 30.0004 	-2.93212e-06 	-2.48789e-06 30.0007 	-7.47587e-06 	-6.70216e-07 30.0007 	-7.47587e-06 	-6.70215e-07 30.0007 	-7.47587e-06 	-6.70215e-07 30.0007 	-7.47586e-06 	-6.70215e-07 30.0004 	-2.82567e-06 	-2.18313e-06 30.0007 	-7.34378e-06 	-4.97063e-07 30.0007 	-7.34378e-06 	-4.97063e-07 30.0007 	-7.34378e-06 	-4.97063e-07 30.0007 	-7.34378e-06 	-4.97063e-07 30.0004 	-1.10861e-07 	-2.17112e-06 30.0007 	-7.21602e-06 	-3.17336e-07 30.0007 	-7.21602e-06 	-3.17336e-07 30.0007 	-7.21602e-06 	-3.17336e-07 30.0007 	-7.21602e-06 	-3.17336e-07 30.0004 	-1.12558e-07 	-1.85338e-06 30.0007 	-7.09931e-06 	-1.3823e-07 30.0007 	-7.09931e-06 	-1.3823e-07 30.0007 	-7.09931e-06 	-1.3823e-07 30.0007 	-7.09931e-06 	-1.3823e-07 30.0004 	-1.14233e-07 	-1.54904e-06 30.0007 	-6.98601e-06 	4.08393e-08 30.0007 	-6.98601e-06 	4.08393e-08 30.0007 	-6.98601e-06 	4.08393e-08 30.0007 	-6.98601e-06 	4.08393e-08 30.0004 	-2.4393e-06 	-9.58512e-07 30.0007 	-6.87244e-06 	2.14653e-07 30.0007 	-6.87244e-06 	2.14653e-07 30.0007 	-6.87244e-06 	2.14653e-07 30.0007 	-6.87244e-06 	2.14653e-07 30.0004 	-2.34771e-06 	-6.82311e-07 30.0007 	-6.75436e-06 	3.90706e-07 30.0007 	-6.75436e-06 	3.90706e-07 30.0007 	-6.75436e-06 	3.90706e-07 30.0007 	-6.75436e-06 	3.90706e-07 30.0004 	-1.19273e-07 	-7.09789e-07 30.0007 	-6.64392e-06 	5.64363e-07 30.0007 	-6.64392e-06 	5.64363e-07 30.0007 	-6.64392e-06 	5.64363e-07 30.0007 	-6.64393e-06 	5.64363e-07 30.0004 	-2.16742e-06 	-1.45452e-07 30.0007 	-6.53697e-06 	7.27391e-07 30.0007 	-6.53697e-06 	7.27391e-07 30.0007 	-6.53697e-06 	7.27391e-07 30.0007 	-6.53697e-06 	7.27391e-07 30.0004 	-2.08177e-06 	1.13824e-07 30.0007 	-6.43169e-06 	8.78829e-07 30.0007 	-6.43169e-06 	8.78829e-07 30.0007 	-6.4317e-06 	8.7883e-07 30.0007 	-6.4317e-06 	8.7883e-07 30.0004 	-1.24248e-07 	7.05597e-08 30.0007 	-6.32419e-06 	1.01779e-06 30.0007 	-6.32419e-06 	1.01779e-06 30.0007 	-6.32419e-06 	1.01779e-06 30.0007 	-6.32419e-06 	1.01779e-06 30.0004 	-1.2586e-07 	3.15791e-07 30.0007 	-6.21784e-06 	1.14062e-06 30.0007 	-6.21784e-06 	1.14062e-06 30.0007 	-6.21785e-06 	1.14062e-06 30.0007 	-6.21785e-06 	1.14062e-06 30.0004 	-1.27455e-07 	5.45512e-07 30.0007 	-6.1166e-06 	1.25633e-06 30.0007 	-6.1166e-06 	1.25633e-06 30.0007 	-6.1166e-06 	1.25633e-06 30.0007 	-6.1166e-06 	1.25633e-06 30.0004 	-1.76501e-06 	1.03207e-06 30.0007 	-6.02389e-06 	1.37128e-06 30.0007 	-6.02389e-06 	1.37128e-06 30.0007 	-6.02389e-06 	1.37128e-06 30.0007 	-6.0239e-06 	1.37128e-06 30.0004 	-1.30577e-07 	9.36932e-07 30.0007 	-5.94424e-06 	1.48851e-06 30.0007 	-5.94424e-06 	1.48851e-06 30.0007 	-5.94425e-06 	1.48851e-06 30.0007 	-5.94425e-06 	1.48851e-06 30.0004 	-1.32086e-07 	1.10455e-06 30.0007 	-5.87303e-06 	1.5929e-06 30.0007 	-5.87304e-06 	1.5929e-06 30.0007 	-5.87304e-06 	1.5929e-06 30.0007 	-5.87304e-06 	1.5929e-06 30.0004 	-1.59213e-06 	1.53876e-06 30.0007 	-5.80343e-06 	1.67933e-06 30.0007 	-5.80343e-06 	1.67933e-06 30.0007 	-5.80343e-06 	1.67933e-06 30.0007 	-5.80344e-06 	1.67933e-06 30.0003 	-1.54492e-06 	1.67821e-06 30.0007 	-5.7354e-06 	1.75012e-06 30.0007 	-5.7354e-06 	1.75012e-06 30.0007 	-5.7354e-06 	1.75013e-06 30.0007 	-5.73541e-06 	1.75013e-06 30.0003 	-1.36794e-07 	1.52472e-06 30.0006 	-5.67025e-06 	1.80983e-06 30.0006 	-5.67025e-06 	1.80983e-06 30.0006 	-5.67025e-06 	1.80983e-06 30.0006 	-5.67026e-06 	1.80983e-06 30.0003 	-1.3834e-07 	1.63227e-06 30.0006 	-5.61016e-06 	1.85996e-06 30.0006 	-5.61016e-06 	1.85996e-06 30.0006 	-5.61017e-06 	1.85996e-06 30.0006 	-5.61017e-06 	1.85996e-06 30.0003 	-1.39799e-07 	1.724e-06 30.0006 	-5.55585e-06 	1.90046e-06 30.0006 	-5.55585e-06 	1.90046e-06 30.0006 	-5.55585e-06 	1.90046e-06 30.0006 	-5.55586e-06 	1.90046e-06 30.0003 	-1.38957e-06 	2.07103e-06 30.0006 	-5.50699e-06 	1.93111e-06 30.0006 	-5.507e-06 	1.93112e-06 30.0006 	-5.507e-06 	1.93112e-06 30.0006 	-5.50701e-06 	1.93112e-06 30.0003 	-1.36253e-06 	2.13096e-06 30.0006 	-5.46325e-06 	1.95185e-06 30.0006 	-5.46325e-06 	1.95185e-06 30.0006 	-5.46326e-06 	1.95186e-06 30.0006 	-5.46326e-06 	1.95186e-06 30.0003 	-1.43792e-07 	1.90826e-06 30.0006 	-5.42443e-06 	1.9628e-06 30.0006 	-5.42443e-06 	1.9628e-06 30.0006 	-5.42444e-06 	1.96281e-06 30.0006 	-5.42444e-06 	1.96281e-06 30.0003 	-1.32411e-06 	2.20765e-06 30.0006 	-5.39044e-06 	1.96433e-06 30.0006 	-5.39045e-06 	1.96434e-06 30.0006 	-5.39045e-06 	1.96434e-06 30.0006 	-5.39046e-06 	1.96434e-06 30.0003 	-1.31232e-06 	2.22554e-06 30.0006 	-5.36124e-06 	1.95693e-06 30.0006 	-5.36124e-06 	1.95693e-06 30.0006 	-5.36124e-06 	1.95693e-06 30.0006 	-5.36125e-06 	1.95694e-06 30.0003 	-1.47606e-07 	1.96617e-06 30.0005 	-5.33671e-06 	1.94113e-06 30.0005 	-5.33671e-06 	1.94113e-06 30.0005 	-5.33671e-06 	1.94113e-06 30.0005 	-5.33672e-06 	1.94114e-06 30.0003 	-1.48833e-07 	1.96057e-06 30.0005 	-5.31668e-06 	1.91794e-06 30.0005 	-5.31668e-06 	1.91794e-06 30.0005 	-5.31669e-06 	1.91794e-06 30.0005 	-5.31669e-06 	1.91794e-06 30.0003 	-1.50031e-07 	1.94424e-06 30.0005 	-5.30105e-06 	1.88801e-06 30.0005 	-5.30106e-06 	1.88801e-06 30.0005 	-5.30106e-06 	1.88801e-06 30.0005 	-5.30106e-06 	1.88801e-06 30.0003 	-1.30969e-06 	2.17899e-06 30.0005 	-5.28968e-06 	1.85191e-06 30.0005 	-5.28968e-06 	1.85191e-06 30.0005 	-5.28968e-06 	1.85191e-06 30.0005 	-5.28969e-06 	1.85191e-06 30.0003 	-1.52346e-07 	1.8823e-06 30.0005 	-5.28236e-06 	1.81008e-06 30.0005 	-5.28236e-06 	1.81009e-06 30.0005 	-5.28237e-06 	1.81009e-06 30.0005 	-5.28237e-06 	1.81009e-06 30.0003 	-1.5345e-07 	1.83818e-06 30.0005 	-5.27889e-06 	1.76316e-06 30.0005 	-5.27889e-06 	1.76316e-06 30.0005 	-5.27889e-06 	1.76317e-06 30.0005 	-5.2789e-06 	1.76317e-06 30.0003 	-1.34886e-06 	2.04407e-06 30.0005 	-5.27902e-06 	1.71162e-06 30.0005 	-5.27903e-06 	1.71163e-06 30.0005 	-5.27903e-06 	1.71163e-06 30.0005 	-5.27903e-06 	1.71163e-06 30.0003 	-1.36891e-06 	1.98423e-06 30.0005 	-5.28256e-06 	1.65599e-06 30.0005 	-5.28257e-06 	1.65599e-06 30.0005 	-5.28257e-06 	1.656e-06 30.0005 	-5.28257e-06 	1.656e-06 30.0002 	-1.56621e-07 	1.66281e-06 30.0005 	-5.28933e-06 	1.59668e-06 30.0005 	-5.28933e-06 	1.59668e-06 30.0005 	-5.28934e-06 	1.59668e-06 30.0005 	-5.28934e-06 	1.59668e-06 30.0002 	-1.57663e-07 	1.59256e-06 30.0004 	-5.29925e-06 	1.53415e-06 30.0004 	-5.29926e-06 	1.53415e-06 30.0004 	-5.29926e-06 	1.53416e-06 30.0004 	-5.29926e-06 	1.53416e-06 30.0002 	-1.58728e-07 	1.51769e-06 30.0004 	-5.31217e-06 	1.46889e-06 30.0004 	-5.31218e-06 	1.46889e-06 30.0004 	-5.31218e-06 	1.46889e-06 30.0004 	-5.31218e-06 	1.46889e-06 30.0002 	-1.48055e-06 	1.69062e-06 30.0004 	-5.32769e-06 	1.40143e-06 30.0004 	-5.32769e-06 	1.40143e-06 30.0004 	-5.3277e-06 	1.40144e-06 30.0004 	-5.3277e-06 	1.40144e-06 30.0002 	-1.51506e-06 	1.60713e-06 30.0004 	-5.34556e-06 	1.33219e-06 30.0004 	-5.34557e-06 	1.33219e-06 30.0004 	-5.34557e-06 	1.33219e-06 30.0004 	-5.34557e-06 	1.33219e-06 30.0002 	-1.61949e-07 	1.27187e-06 30.0004 	-5.36557e-06 	1.26148e-06 30.0004 	-5.36557e-06 	1.26148e-06 30.0004 	-5.36557e-06 	1.26148e-06 30.0004 	-5.36557e-06 	1.26148e-06 30.0002 	-1.59038e-06 	1.4325e-06 30.0004 	-5.38737e-06 	1.1898e-06 30.0004 	-5.38737e-06 	1.1898e-06 30.0004 	-5.38737e-06 	1.18981e-06 30.0004 	-5.38738e-06 	1.18981e-06 30.0002 	-1.63086e-06 	1.34242e-06 30.0004 	-5.41097e-06 	1.11747e-06 30.0004 	-5.41097e-06 	1.11747e-06 30.0004 	-5.41098e-06 	1.11747e-06 30.0004 	-5.41098e-06 	1.11747e-06 30.0002 	-1.64954e-07 	1.00609e-06 30.0004 	-5.4361e-06 	1.0448e-06 30.0004 	-5.43611e-06 	1.0448e-06 30.0004 	-5.43611e-06 	1.0448e-06 30.0004 	-5.43611e-06 	1.0448e-06 30.0002 	-1.65902e-07 	9.15616e-07 30.0004 	-5.46174e-06 	9.72266e-07 30.0004 	-5.46174e-06 	9.72266e-07 30.0004 	-5.46174e-06 	9.72267e-07 30.0004 	-5.46174e-06 	9.72267e-07 30.0002 	-1.668e-07 	8.24995e-07 30.0004 	-5.48776e-06 	8.99489e-07 30.0004 	-5.48776e-06 	8.9949e-07 30.0004 	-5.48776e-06 	8.9949e-07 30.0004 	-5.48776e-06 	8.9949e-07 30.0002 	-1.80774e-06 	9.75426e-07 30.0004 	-5.51452e-06 	8.25959e-07 30.0004 	-5.51452e-06 	8.25959e-07 30.0004 	-5.51452e-06 	8.25959e-07 30.0004 	-5.51452e-06 	8.25959e-07 30.0002 	-1.6849e-07 	6.4363e-07 30.0003 	-5.54425e-06 	7.52001e-07 30.0003 	-5.54426e-06 	7.52001e-07 30.0003 	-5.54426e-06 	7.52001e-07 30.0003 	-5.54426e-06 	7.52001e-07 30.0002 	-1.69321e-07 	5.52637e-07 30.0003 	-5.57872e-06 	6.77459e-07 30.0003 	-5.57872e-06 	6.77459e-07 30.0003 	-5.57873e-06 	6.77459e-07 30.0003 	-5.57873e-06 	6.7746e-07 30.0002 	-1.95609e-06 	7.01321e-07 30.0003 	-5.61556e-06 	6.04392e-07 30.0003 	-5.61556e-06 	6.04392e-07 30.0003 	-5.61556e-06 	6.04392e-07 30.0003 	-5.61556e-06 	6.04392e-07 30.0002 	-2.00828e-06 	6.11692e-07 30.0003 	-5.65168e-06 	5.34684e-07 30.0003 	-5.65168e-06 	5.34684e-07 30.0003 	-5.65168e-06 	5.34684e-07 30.0003 	-5.65168e-06 	5.34684e-07 30.0002 	-1.71808e-07 	2.80943e-07 30.0003 	-5.68278e-06 	4.67666e-07 30.0003 	-5.68278e-06 	4.67666e-07 30.0003 	-5.68279e-06 	4.67666e-07 30.0003 	-5.68279e-06 	4.67666e-07 30.0002 	-1.72636e-07 	1.97331e-07 30.0003 	-5.71119e-06 	4.03225e-07 30.0003 	-5.7112e-06 	4.03225e-07 30.0003 	-5.7112e-06 	4.03225e-07 30.0003 	-5.7112e-06 	4.03226e-07 30.0002 	-1.73429e-07 	1.16402e-07 30.0003 	-5.73935e-06 	3.39263e-07 30.0003 	-5.73935e-06 	3.39264e-07 30.0003 	-5.73935e-06 	3.39264e-07 30.0003 	-5.73935e-06 	3.39264e-07 30.0002 	-2.20153e-06 	2.74096e-07 30.0003 	-5.76731e-06 	2.75296e-07 30.0003 	-5.76731e-06 	2.75296e-07 30.0003 	-5.76731e-06 	2.75296e-07 30.0003 	-5.76731e-06 	2.75297e-07 30.0002 	-2.24846e-06 	1.96355e-07 30.0003 	-5.7941e-06 	2.1082e-07 30.0003 	-5.79411e-06 	2.1082e-07 30.0003 	-5.79411e-06 	2.1082e-07 30.0003 	-5.79411e-06 	2.1082e-07 30.0002 	-1.75608e-07 	-1.09139e-07 30.0003 	-5.82214e-06 	1.48822e-07 30.0003 	-5.82214e-06 	1.48822e-07 30.0003 	-5.82214e-06 	1.48822e-07 30.0003 	-5.82214e-06 	1.48822e-07 30.0002 	-2.34224e-06 	4.46753e-08 30.0003 	-5.85139e-06 	9.00286e-08 30.0003 	-5.85139e-06 	9.00286e-08 30.0003 	-5.85139e-06 	9.00286e-08 30.0003 	-5.85139e-06 	9.00286e-08 30.0002 	-2.38954e-06 	-2.9099e-08 30.0003 	-5.8818e-06 	3.48585e-08 30.0003 	-5.8818e-06 	3.48585e-08 30.0003 	-5.8818e-06 	3.48585e-08 30.0003 	-5.8818e-06 	3.48585e-08 30.0002 	-1.77616e-07 	-3.3076e-07 30.0003 	-5.91361e-06 	-1.70157e-08 30.0003 	-5.91361e-06 	-1.70157e-08 30.0003 	-5.91361e-06 	-1.70157e-08 30.0003 	-5.91361e-06 	-1.70157e-08 30.0002 	-1.78251e-07 	-4.01791e-07 30.0003 	-5.94672e-06 	-6.89911e-08 30.0003 	-5.94672e-06 	-6.89911e-08 30.0003 	-5.94672e-06 	-6.89911e-08 30.0003 	-5.94672e-06 	-6.89911e-08 30.0002 	-1.78848e-07 	-4.6706e-07 30.0003 	-5.97865e-06 	-1.23252e-07 30.0003 	-5.97865e-06 	-1.23252e-07 30.0003 	-5.97865e-06 	-1.23252e-07 30.0003 	-5.97865e-06 	-1.23252e-07 30.0002 	-2.58104e-06 	-3.01372e-07 30.0003 	-6.00641e-06 	-1.77894e-07 30.0003 	-6.00641e-06 	-1.77894e-07 30.0003 	-6.00641e-06 	-1.77894e-07 30.0003 	-6.00641e-06 	-1.77894e-07 30.0002 	-1.80012e-07 	-5.84868e-07 30.0003 	-6.03054e-06 	-2.29149e-07 30.0003 	-6.03054e-06 	-2.29149e-07 30.0003 	-6.03054e-06 	-2.29149e-07 30.0003 	-6.03054e-06 	-2.29149e-07 30.0002 	-1.80609e-07 	-6.42128e-07 30.0003 	-6.05376e-06 	-2.76111e-07 30.0003 	-6.05376e-06 	-2.76111e-07 30.0003 	-6.05376e-06 	-2.76111e-07 30.0003 	-6.05376e-06 	-2.76111e-07 30.0002 	-2.70908e-06 	-4.78974e-07 30.0003 	-6.07759e-06 	-3.19592e-07 30.0003 	-6.07759e-06 	-3.19592e-07 30.0003 	-6.07759e-06 	-3.19592e-07 30.0003 	-6.07759e-06 	-3.19592e-07 30.0002 	-2.7501e-06 	-5.34017e-07 30.0003 	-6.10189e-06 	-3.61117e-07 30.0003 	-6.10189e-06 	-3.61117e-07 30.0003 	-6.10189e-06 	-3.61117e-07 30.0003 	-6.10189e-06 	-3.61117e-07 30.0002 	-1.82328e-07 	-8.03763e-07 30.0003 	-6.12591e-06 	-4.01311e-07 30.0003 	-6.12591e-06 	-4.01311e-07 30.0003 	-6.12591e-06 	-4.01311e-07 30.0003 	-6.12591e-06 	-4.01311e-07 30.0001 	-1.82863e-07 	-8.5308e-07 30.0003 	-6.14928e-06 	-4.40304e-07 30.0003 	-6.14928e-06 	-4.40304e-07 30.0003 	-6.14928e-06 	-4.40304e-07 30.0003 	-6.14928e-06 	-4.40304e-07 30.0001 	-1.8338e-07 	-9.00288e-07 30.0003 	-6.1719e-06 	-4.77926e-07 30.0003 	-6.1719e-06 	-4.77926e-07 30.0003 	-6.1719e-06 	-4.77926e-07 30.0003 	-6.1719e-06 	-4.77926e-07 30.0001 	-2.90955e-06 	-7.31447e-07 30.0003 	-6.19367e-06 	-5.14143e-07 30.0003 	-6.19366e-06 	-5.14142e-07 30.0003 	-6.19366e-06 	-5.14142e-07 30.0003 	-6.19366e-06 	-5.14142e-07 30.0001 	-2.94741e-06 	-7.75573e-07 30.0003 	-6.21462e-06 	-5.4876e-07 30.0003 	-6.21461e-06 	-5.4876e-07 30.0003 	-6.21461e-06 	-5.4876e-07 30.0003 	-6.21461e-06 	-5.4876e-07 30.0001 	-1.84867e-07 	-1.02949e-06 30.0003 	-6.23473e-06 	-5.81973e-07 30.0003 	-6.23472e-06 	-5.81973e-07 30.0003 	-6.23472e-06 	-5.81973e-07 30.0003 	-6.23472e-06 	-5.81973e-07 30.0001 	-3.0204e-06 	-8.5746e-07 30.0003 	-6.25397e-06 	-6.13818e-07 30.0003 	-6.25396e-06 	-6.13817e-07 30.0003 	-6.25396e-06 	-6.13817e-07 30.0003 	-6.25396e-06 	-6.13817e-07 30.0001 	-3.05548e-06 	-8.95468e-07 30.0003 	-6.27244e-06 	-6.44343e-07 30.0003 	-6.27244e-06 	-6.44343e-07 30.0003 	-6.27244e-06 	-6.44342e-07 30.0003 	-6.27243e-06 	-6.44342e-07 30.0001 	-1.86254e-07 	-1.14081e-06 30.0003 	-6.29021e-06 	-6.73544e-07 30.0003 	-6.29021e-06 	-6.73544e-07 30.0003 	-6.2902e-06 	-6.73544e-07 30.0003 	-6.2902e-06 	-6.73544e-07 30.0001 	-1.867e-07 	-1.17456e-06 30.0003 	-6.3072e-06 	-7.01363e-07 30.0003 	-6.30719e-06 	-7.01363e-07 30.0003 	-6.30719e-06 	-7.01363e-07 30.0003 	-6.30719e-06 	-7.01363e-07 30.0001 	-1.87133e-07 	-1.20664e-06 30.0003 	-6.32324e-06 	-7.27796e-07 30.0003 	-6.32324e-06 	-7.27796e-07 30.0003 	-6.32324e-06 	-7.27796e-07 30.0003 	-6.32324e-06 	-7.27796e-07 30.0001 	-3.18688e-06 	-1.03099e-06 30.0003 	-6.33847e-06 	-7.52909e-07 30.0003 	-6.33847e-06 	-7.52909e-07 30.0003 	-6.33847e-06 	-7.52909e-07 30.0003 	-6.33847e-06 	-7.52909e-07 30.0001 	-1.87963e-07 	-1.26592e-06 30.0003 	-6.35297e-06 	-7.76879e-07 30.0003 	-6.35296e-06 	-7.76879e-07 30.0003 	-6.35296e-06 	-7.76879e-07 30.0003 	-6.35296e-06 	-7.76878e-07 30.0001 	-1.88366e-07 	-1.29328e-06 30.0003 	-6.36674e-06 	-7.99751e-07 30.0003 	-6.36674e-06 	-7.99751e-07 30.0003 	-6.36674e-06 	-7.99751e-07 30.0003 	-6.36673e-06 	-7.9975e-07 30.0001 	-3.27623e-06 	-1.11604e-06 30.0003 	-6.37978e-06 	-8.21481e-07 30.0003 	-6.37978e-06 	-8.2148e-07 30.0003 	-6.37978e-06 	-8.2148e-07 30.0003 	-6.37978e-06 	-8.2148e-07 30.0001 	-3.30433e-06 	-1.14152e-06 30.0003 	-6.39209e-06 	-8.41917e-07 30.0003 	-6.39209e-06 	-8.41916e-07 30.0003 	-6.39209e-06 	-8.41916e-07 30.0003 	-6.39209e-06 	-8.41916e-07 30.0001 	-1.89523e-07 	-1.36683e-06 30.0003 	-6.4037e-06 	-8.61312e-07 30.0003 	-6.40369e-06 	-8.61312e-07 30.0003 	-6.40369e-06 	-8.61312e-07 30.0003 	-6.40369e-06 	-8.61311e-07 30.0001 	-1.89896e-07 	-1.3887e-06 30.0003 	-6.4146e-06 	-8.79752e-07 30.0003 	-6.4146e-06 	-8.79752e-07 30.0003 	-6.4146e-06 	-8.79751e-07 30.0003 	-6.4146e-06 	-8.79751e-07 30.0001 	-1.9026e-07 	-1.40935e-06 30.0003 	-6.42482e-06 	-8.97238e-07 30.0003 	-6.42482e-06 	-8.97238e-07 30.0003 	-6.42481e-06 	-8.97237e-07 30.0003 	-6.42481e-06 	-8.97237e-07 30.0001 	-3.40861e-06 	-1.23051e-06 30.0003 	-6.43436e-06 	-9.13825e-07 30.0003 	-6.43436e-06 	-9.13825e-07 30.0003 	-6.43436e-06 	-9.13824e-07 30.0003 	-6.43436e-06 	-9.13824e-07 30.0001 	-3.43273e-06 	-1.24984e-06 30.0003 	-6.44326e-06 	-9.29513e-07 30.0003 	-6.44326e-06 	-9.29513e-07 30.0003 	-6.44326e-06 	-9.29512e-07 30.0003 	-6.44325e-06 	-9.29512e-07 30.0001 	-1.91325e-07 	-1.46452e-06 30.0003 	-6.45154e-06 	-9.44365e-07 30.0003 	-6.45153e-06 	-9.44365e-07 30.0003 	-6.45153e-06 	-9.44364e-07 30.0003 	-6.45153e-06 	-9.44364e-07 30.0001 	-3.4788e-06 	-1.28533e-06 30.0003 	-6.45919e-06 	-9.58372e-07 30.0003 	-6.45918e-06 	-9.58371e-07 30.0003 	-6.45918e-06 	-9.58371e-07 30.0003 	-6.45918e-06 	-9.58371e-07 30.0001 	-3.50085e-06 	-1.3016e-06 30.0003 	-6.46625e-06 	-9.71665e-07 30.0003 	-6.46625e-06 	-9.71665e-07 30.0003 	-6.46625e-06 	-9.71664e-07 30.0003 	-6.46624e-06 	-9.71664e