# vtk DataFile Version 2.0
track0
ASCII
DATASET POLYDATA
POINTS 15780 float
-1.001 -0.05 0.0011
-1.0008 -0.05 0.0011
-1.0006 -0.05 0.0011
-1.0004 -0.05 0.0011
-1.0002 -0.05 0.0011
-1 -0.05 0.0011
-0.9875 -0.05 0.0011
-0.975 -0.05 0.0011
-0.9625 -0.05 0.0011
-0.95 -0.05 0.0011
-0.9375 -0.05 0.00109999
-0.925 -0.05 0.00109999
-0.9125 -0.05 0.00109999
-0.9 -0.05 0.00109999
-0.8875 -0.05 0.00109999
-0.875 -0.05 0.00109999
-0.8625 -0.05 0.00109999
-0.85 -0.05 0.00109999
-0.8375 -0.05 0.00109998
-0.825 -0.0500001 0.00109998
-0.8125 -0.0500001 0.00109998
-0.8 -0.0500001 0.00109998
-0.7875 -0.0500001 0.00109998
-0.775 -0.0500001 0.00109998
-0.7625 -0.0500001 0.00109998
-0.75 -0.0500001 0.00109998
-0.7375 -0.0500001 0.00109997
-0.725 -0.0500001 0.00109997
-0.7125 -0.0500001 0.00109997
-0.7 -0.0500001 0.00109997
-0.6875 -0.0500001 0.00109997
-0.675 -0.0500001 0.00109997
-0.6625 -0.0500001 0.00109997
-0.65 -0.0500001 0.00109996
-0.6375 -0.0500001 0.00109996
-0.625 -0.0500001 0.00109996
-0.6125 -0.0500001 0.00109996
-0.6 -0.0500001 0.00109996
-0.5875 -0.0500001 0.00109996
-0.575 -0.0500001 0.00109996
-0.5625 -0.0500001 0.00109996
-0.55 -0.0500001 0.00109995
-0.5375 -0.0500001 0.00109995
-0.525 -0.0500001 0.00109995
-0.5125 -0.0500001 0.00109995
-0.5 -0.0500001 0.00109995
-0.4875 -0.0500001 0.00109995
-0.475 -0.0500001 0.00109995
-0.4625 -0.0500001 0.00109994
-0.45 -0.0500002 0.00109994
-0.4375 -0.0500002 0.00109994
-0.425 -0.0500002 0.00109994
-0.4125 -0.0500002 0.00109994
-0.4 -0.0500002 0.00109994
-0.3875 -0.0500002 0.00109994
-0.375 -0.0500002 0.00109994
-0.3625 -0.0500002 0.00109993
-0.35 -0.0500002 0.00109993
-0.3375 -0.0500002 0.00109993
-0.325 -0.0500002 0.00109993
-0.3125 -0.0500002 0.00109993
-0.3 -0.0500002 0.00109993
-0.2875 -0.0500002 0.00109993
-0.275 -0.0500002 0.00109993
-0.2625 -0.0500002 0.00109992
-0.25 -0.0500002 0.00109992
-0.2375 -0.0500002 0.00109992
-0.225 -0.0500002 0.00109992
-0.2125 -0.0500002 0.00109992
-0.2 -0.0500002 0.00109992
-0.1875 -0.0500002 0.00109992
-0.175 -0.0500002 0.00109992
-0.1625 -0.0500002 0.00109991
-0.15 -0.0500002 0.00109991
-0.1375 -0.0500002 0.00109991
-0.125 -0.0500002 0.00109991
-0.1125 -0.0500002 0.00109991
-0.1 -0.0500002 0.00109991
-0.0875 -0.0500002 0.00109991
-0.075 -0.0500002 0.00109991
-0.0625 -0.0500002 0.00109991
-0.05 -0.0500003 0.00109991
-0.0375 -0.0500003 0.0010999
-0.025 -0.0500003 0.0010999
-0.0125 -0.0500003 0.0010999
2.10607e-13 -0.0500003 0.0010999
0.0125 -0.0500003 0.0010999
0.025 -0.0500003 0.0010999
0.0375 -0.0500003 0.0010999
0.05 -0.0500003 0.0010999
0.0625 -0.0500003 0.0010999
0.075 -0.0500003 0.0010999
0.0875 -0.0500003 0.0010999
0.1 -0.0500003 0.00109989
0.1125 -0.0500003 0.00109989
0.125 -0.0500003 0.00109989
0.1375 -0.0500003 0.00109989
0.15 -0.0500003 0.00109989
0.1625 -0.0500003 0.00109989
0.175 -0.0500003 0.00109989
0.1875 -0.0500003 0.00109989
0.2 -0.0500003 0.00109989
0.2125 -0.0500003 0.00109989
0.225 -0.0500003 0.00109989
0.2375 -0.0500003 0.00109989
0.25 -0.0500003 0.00109989
0.2625 -0.0500003 0.00109988
0.275 -0.0500003 0.00109988
0.2875 -0.0500003 0.00109988
0.3 -0.0500003 0.00109988
0.3125 -0.0500003 0.00109988
0.325 -0.0500003 0.00109988
0.3375 -0.0500003 0.00109988
0.35 -0.0500003 0.00109988
0.3625 -0.0500003 0.00109988
0.375 -0.0500003 0.00109988
0.3875 -0.0500003 0.00109988
0.4 -0.0500004 0.00109988
0.4125 -0.0500004 0.00109988
0.425 -0.0500004 0.00109988
0.4375 -0.0500004 0.00109988
0.45 -0.0500004 0.00109988
0.4625 -0.0500004 0.00109988
0.475 -0.0500004 0.00109988
0.4875 -0.0500004 0.00109988
0.5 -0.0500004 0.00109988
0.5125 -0.0500004 0.00109988
0.525 -0.0500004 0.00109988
0.5375 -0.0500004 0.00109988
0.55 -0.0500004 0.00109988
0.5625 -0.0500004 0.00109988
0.575 -0.0500004 0.00109987
0.5875 -0.0500004 0.00109987
0.6 -0.0500004 0.00109987
0.6125 -0.0500004 0.00109987
0.625 -0.0500004 0.00109987
0.6375 -0.0500004 0.00109987
0.65 -0.0500004 0.00109987
0.6625 -0.0500004 0.00109987
0.675 -0.0500004 0.00109987
0.6875 -0.0500004 0.00109987
0.7 -0.0500004 0.00109987
0.7125 -0.0500004 0.00109987
0.725 -0.0500004 0.00109987
0.7375 -0.0500004 0.00109987
0.75 -0.0500004 0.00109987
0.7625 -0.0500004 0.00109987
0.775 -0.0500004 0.00109987
0.7875 -0.0500004 0.00109987
0.8 -0.0500004 0.00109987
0.8125 -0.0500004 0.00109987
0.825 -0.0500004 0.00109987
0.8375 -0.0500004 0.00109987
0.85 -0.0500004 0.00109987
0.8625 -0.0500004 0.00109987
0.875 -0.0500004 0.00109987
0.8875 -0.0500004 0.00109987
0.9 -0.0500004 0.00109987
0.9125 -0.0500005 0.00109988
0.925 -0.0500005 0.00109988
0.9375 -0.0500005 0.00109988
0.95 -0.0500005 0.00109988
0.9625 -0.0500005 0.00109988
0.975 -0.0500005 0.00109988
0.9875 -0.0500005 0.00109988
1 -0.0500005 0.00109988
1.0125 -0.0500005 0.00109988
1.025 -0.0500005 0.00109988
1.0375 -0.0500005 0.00109988
1.05 -0.0500005 0.00109988
1.0625 -0.0500005 0.00109988
1.075 -0.0500005 0.00109988
1.0875 -0.0500005 0.00109988
1.1 -0.0500005 0.00109988
1.1125 -0.0500005 0.00109988
1.125 -0.0500005 0.00109988
1.1375 -0.0500005 0.00109988
1.15 -0.0500005 0.00109988
1.1625 -0.0500005 0.00109988
1.175 -0.0500005 0.00109988
1.1875 -0.0500005 0.00109988
1.2 -0.0500005 0.00109988
1.2125 -0.0500005 0.00109988
1.225 -0.0500005 0.00109988
1.2375 -0.0500005 0.00109989
1.25 -0.0500005 0.00109989
1.2625 -0.0500005 0.00109989
1.275 -0.0500005 0.00109989
1.2875 -0.0500005 0.00109989
1.3 -0.0500005 0.00109989
1.3125 -0.0500005 0.00109989
1.325 -0.0500005 0.00109989
1.3375 -0.0500005 0.00109989
1.35 -0.0500005 0.00109989
1.3625 -0.0500005 0.00109989
1.375 -0.0500005 0.00109989
1.3875 -0.0500005 0.00109989
1.4 -0.0500005 0.00109989
1.4125 -0.0500005 0.00109989
1.425 -0.0500005 0.00109989
1.4375 -0.0500005 0.0010999
1.45 -0.0500005 0.0010999
1.4625 -0.0500005 0.0010999
1.475 -0.0500005 0.0010999
1.4875 -0.0500005 0.0010999
1.5 -0.0500006 0.0010999
1.5125 -0.0500006 0.0010999
1.525 -0.0500006 0.0010999
1.5375 -0.0500006 0.0010999
1.55 -0.0500006 0.0010999
1.5625 -0.0500006 0.0010999
1.575 -0.0500006 0.0010999
1.5875 -0.0500006 0.0010999
1.6 -0.0500006 0.0010999
1.6125 -0.0500006 0.00109991
1.625 -0.0500006 0.00109991
1.6375 -0.0500006 0.00109991
1.65 -0.0500006 0.00109991
1.6625 -0.0500006 0.00109991
1.675 -0.0500006 0.00109991
1.6875 -0.0500006 0.00109991
1.7 -0.0500006 0.00109991
1.7125 -0.0500006 0.00109991
1.725 -0.0500006 0.00109991
1.7375 -0.0500006 0.00109991
1.75 -0.0500006 0.00109991
1.7625 -0.0500006 0.00109992
1.775 -0.0500006 0.00109992
1.7875 -0.0500006 0.00109992
1.8 -0.0500006 0.00109992
1.8125 -0.0500006 0.00109992
1.825 -0.0500006 0.00109992
1.8375 -0.0500006 0.00109992
1.85 -0.0500006 0.00109992
1.8625 -0.0500006 0.00109992
1.875 -0.0500006 0.00109992
1.8875 -0.0500006 0.00109992
1.9 -0.0500006 0.00109992
1.9125 -0.0500006 0.00109993
1.925 -0.0500006 0.00109993
1.9375 -0.0500006 0.00109993
1.95 -0.0500006 0.00109993
1.9625 -0.0500006 0.00109993
1.975 -0.0500006 0.00109993
1.9875 -0.0500006 0.00109993
2 -0.0500006 0.00109993
2.0125 -0.0500006 0.00109993
2.025 -0.0500006 0.00109993
2.0375 -0.0500006 0.00109993
2.05 -0.0500006 0.00109993
2.0625 -0.0500006 0.00109994
2.075 -0.0500006 0.00109994
2.0875 -0.0500006 0.00109994
2.1 -0.0500006 0.00109994
2.1125 -0.0500006 0.00109994
2.125 -0.0500006 0.00109994
2.1375 -0.0500006 0.00109994
2.15 -0.0500006 0.00109994
2.1625 -0.0500006 0.00109994
2.175 -0.0500007 0.00109994
2.1875 -0.0500007 0.00109994
2.2 -0.0500007 0.00109994
2.2125 -0.0500007 0.00109994
2.225 -0.0500007 0.00109995
2.2375 -0.0500007 0.00109995
2.25 -0.0500007 0.00109995
2.2625 -0.0500007 0.00109995
2.275 -0.0500007 0.00109995
2.2875 -0.0500007 0.00109995
2.3 -0.0500007 0.00109995
2.3125 -0.0500007 0.00109995
2.325 -0.0500007 0.00109995
2.3375 -0.0500007 0.00109995
2.35 -0.0500007 0.00109995
2.3625 -0.0500007 0.00109995
2.375 -0.0500007 0.00109995
2.3875 -0.0500007 0.00109996
2.4 -0.0500007 0.00109996
2.4125 -0.0500007 0.00109996
2.425 -0.0500007 0.00109996
2.4375 -0.0500007 0.00109996
2.45 -0.0500007 0.00109996
2.4625 -0.0500007 0.00109996
2.475 -0.0500007 0.00109996
2.4875 -0.0500007 0.00109996
2.5 -0.0500007 0.00109996
2.5125 -0.0500007 0.00109996
2.525 -0.0500007 0.00109996
2.5375 -0.0500007 0.00109996
2.55 -0.0500007 0.00109996
2.5625 -0.0500007 0.00109997
2.575 -0.0500007 0.00109997
2.5875 -0.0500007 0.00109997
2.6 -0.0500007 0.00109997
2.6125 -0.0500007 0.00109997
2.625 -0.0500007 0.00109997
2.6375 -0.0500007 0.00109997
2.65 -0.0500007 0.00109997
2.6625 -0.0500007 0.00109997
2.675 -0.0500007 0.00109997
2.6875 -0.0500007 0.00109997
2.7 -0.0500007 0.00109997
2.7125 -0.0500007 0.00109997
2.725 -0.0500007 0.00109997
2.7375 -0.0500007 0.00109997
2.75 -0.0500007 0.00109997
2.7625 -0.0500007 0.00109998
2.775 -0.0500007 0.00109998
2.7875 -0.0500007 0.00109998
2.8 -0.0500007 0.00109998
2.8125 -0.0500007 0.00109998
2.825 -0.0500007 0.00109998
2.8375 -0.0500007 0.00109998
2.85 -0.0500007 0.00109998
2.8625 -0.0500008 0.00109998
2.875 -0.0500008 0.00109998
2.8875 -0.0500008 0.00109998
2.9 -0.0500008 0.00109998
2.9125 -0.0500008 0.00109998
2.925 -0.0500008 0.00109998
2.9375 -0.0500008 0.00109998
2.95 -0.0500008 0.00109998
2.9625 -0.0500008 0.00109998
2.975 -0.0500008 0.00109998
2.9875 -0.0500008 0.00109998
3 -0.0500008 0.00109998
3.0125 -0.0500008 0.00109999
3.025 -0.0500008 0.00109999
3.0375 -0.0500008 0.00109999
3.05 -0.0500008 0.00109999
3.0625 -0.0500008 0.00109999
3.075 -0.0500008 0.00109999
3.0875 -0.0500008 0.00109999
3.1 -0.0500008 0.00109999
3.1125 -0.0500008 0.00109999
3.125 -0.0500008 0.00109999
3.1375 -0.0500008 0.00109999
3.15 -0.0500008 0.00109999
3.1625 -0.0500008 0.00109999
3.175 -0.0500008 0.00109999
3.1875 -0.0500008 0.00109999
3.2 -0.0500008 0.00109999
3.2125 -0.0500008 0.00109999
3.225 -0.0500008 0.00109999
3.2375 -0.0500008 0.00109999
3.25 -0.0500008 0.00109999
3.2625 -0.0500008 0.00109999
3.275 -0.0500008 0.00109999
3.2875 -0.0500008 0.00109999
3.3 -0.0500008 0.00109999
3.3125 -0.0500008 0.00109999
3.325 -0.0500008 0.00109999
3.3375 -0.0500008 0.00109999
3.35 -0.0500008 0.0011
3.3625 -0.0500008 0.0011
[...]
POINT_DATA 15780
 FIELD attributes 1
U 3 15780 float
30.0002 	-7.01789e-06 	-6.30588e-06 30.0002 	-6.8434e-06 	-6.51455e-06 30.0002 	-6.66892e-06 	-6.72322e-06 30.0002 	-6.49443e-06 	-6.93189e-06 30.0002 	-6.31995e-06 	-7.14056e-06 30.0002 	-6.14547e-06 	-7.34922e-06 30.0004 	-1.23852e-05 	-1.26097e-06 30.0004 	-1.23852e-05 	-1.26097e-06 30.0004 	-1.23852e-05 	-1.26097e-06 30.0004 	-1.23852e-05 	-1.26097e-06 30.0002 	-7.0538e-08 	-6.84368e-06 30.0005 	-1.07091e-05 	-1.68701e-06 30.0005 	-1.07091e-05 	-1.68701e-06 30.0005 	-1.07091e-05 	-1.68701e-06 30.0005 	-1.07091e-05 	-1.68701e-06 30.0002 	-7.22348e-08 	-6.59608e-06 30.0005 	-9.95857e-06 	-2.08019e-06 30.0005 	-9.95856e-06 	-2.08019e-06 30.0005 	-9.95855e-06 	-2.08018e-06 30.0005 	-9.95854e-06 	-2.08018e-06 30.0003 	-4.59314e-06 	-6.24727e-06 30.0005 	-9.69183e-06 	-2.34891e-06 30.0005 	-9.69182e-06 	-2.34891e-06 30.0005 	-9.69181e-06 	-2.34891e-06 30.0005 	-9.6918e-06 	-2.34891e-06 30.0003 	-7.58675e-08 	-6.57616e-06 30.0005 	-9.52369e-06 	-2.49778e-06 30.0005 	-9.52368e-06 	-2.49778e-06 30.0005 	-9.52367e-06 	-2.49777e-06 30.0005 	-9.52367e-06 	-2.49777e-06 30.0003 	-7.76452e-08 	-6.52626e-06 30.0005 	-9.38735e-06 	-2.55602e-06 30.0005 	-9.38734e-06 	-2.55602e-06 30.0005 	-9.38733e-06 	-2.55602e-06 30.0005 	-9.38732e-06 	-2.55601e-06 30.0003 	-4.26702e-06 	-6.08528e-06 30.0005 	-9.27994e-06 	-2.55826e-06 30.0005 	-9.27993e-06 	-2.55825e-06 30.0005 	-9.27992e-06 	-2.55825e-06 30.0005 	-9.27991e-06 	-2.55825e-06 30.0003 	-4.19943e-06 	-5.97789e-06 30.0006 	-9.1878e-06 	-2.53039e-06 30.0006 	-9.18779e-06 	-2.53039e-06 30.0006 	-9.18778e-06 	-2.53038e-06 30.0006 	-9.18777e-06 	-2.53038e-06 30.0003 	-8.29934e-08 	-6.20126e-06 30.0006 	-9.09775e-06 	-2.48114e-06 30.0006 	-9.09774e-06 	-2.48114e-06 30.0006 	-9.09773e-06 	-2.48114e-06 30.0006 	-9.09772e-06 	-2.48114e-06 30.0003 	-8.47548e-08 	-6.05423e-06 30.0006 	-9.0053e-06 	-2.41358e-06 30.0006 	-9.00529e-06 	-2.41357e-06 30.0006 	-9.00528e-06 	-2.41357e-06 30.0006 	-9.00527e-06 	-2.41357e-06 30.0003 	-8.65137e-08 	-5.88782e-06 30.0006 	-8.90917e-06 	-2.3297e-06 30.0006 	-8.90916e-06 	-2.3297e-06 30.0006 	-8.90915e-06 	-2.32969e-06 30.0006 	-8.90914e-06 	-2.32969e-06 30.0003 	-3.93806e-06 	-5.36347e-06 30.0006 	-8.80913e-06 	-2.23272e-06 30.0006 	-8.80913e-06 	-2.23271e-06 30.0006 	-8.80912e-06 	-2.23271e-06 30.0006 	-8.80911e-06 	-2.23271e-06 30.0003 	-3.86429e-06 	-5.16475e-06 30.0006 	-8.70489e-06 	-2.12411e-06 30.0006 	-8.70488e-06 	-2.12411e-06 30.0006 	-8.70488e-06 	-2.12411e-06 30.0006 	-8.70487e-06 	-2.12411e-06 30.0003 	-9.17969e-08 	-5.28457e-06 30.0006 	-8.5967e-06 	-2.00506e-06 30.0006 	-8.59669e-06 	-2.00506e-06 30.0006 	-8.59669e-06 	-2.00505e-06 30.0006 	-8.59668e-06 	-2.00505e-06 30.0003 	-3.70469e-06 	-4.71939e-06 30.0007 	-8.48533e-06 	-1.87666e-06 30.0007 	-8.48533e-06 	-1.87666e-06 30.0007 	-8.48532e-06 	-1.87666e-06 30.0007 	-8.48532e-06 	-1.87666e-06 30.0003 	-3.61959e-06 	-4.4743e-06 30.0007 	-8.372e-06 	-1.73881e-06 30.0007 	-8.37199e-06 	-1.73881e-06 30.0007 	-8.37199e-06 	-1.73881e-06 30.0007 	-8.37198e-06 	-1.73881e-06 30.0004 	-9.70189e-08 	-4.54318e-06 30.0007 	-8.26041e-06 	-1.59801e-06 30.0007 	-8.2604e-06 	-1.59801e-06 30.0007 	-8.2604e-06 	-1.59801e-06 30.0007 	-8.26039e-06 	-1.59801e-06 30.0004 	-9.8743e-08 	-4.27123e-06 30.0007 	-8.14839e-06 	-1.46321e-06 30.0007 	-8.14839e-06 	-1.46321e-06 30.0007 	-8.14838e-06 	-1.46321e-06 30.0007 	-8.14838e-06 	-1.46321e-06 30.0004 	-1.00461e-07 	-3.98925e-06 30.0007 	-8.0203e-06 	-1.32071e-06 30.0007 	-8.02029e-06 	-1.3207e-06 30.0007 	-8.02029e-06 	-1.3207e-06 30.0007 	-8.02029e-06 	-1.3207e-06 30.0004 	-3.25117e-06 	-3.37794e-06 30.0007 	-7.88149e-06 	-1.16799e-06 30.0007 	-7.88149e-06 	-1.16799e-06 30.0007 	-7.88148e-06 	-1.16799e-06 30.0007 	-7.88148e-06 	-1.16799e-06 30.0004 	-1.03862e-07 	-3.40286e-06 30.0007 	-7.74555e-06 	-1.00786e-06 30.0007 	-7.74555e-06 	-1.00786e-06 30.0007 	-7.74555e-06 	-1.00786e-06 30.0007 	-7.74555e-06 	-1.00786e-06 30.0004 	-1.05561e-07 	-3.10325e-06 30.0007 	-7.61141e-06 	-8.41842e-07 30.0007 	-7.61141e-06 	-8.41842e-07 30.0007 	-7.6114e-06 	-8.41842e-07 30.0007 	-7.6114e-06 	-8.41842e-07 30.0004 	-2.93197e-06 	-2.48787e-06 30.0007 	-7.47563e-06 	-6.7019e-07 30.0007 	-7.47563e-06 	-6.7019e-07 30.0007 	-7.47563e-06 	-6.7019e-07 30.0007 	-7.47562e-06 	-6.70189e-07 30.0004 	-2.82549e-06 	-2.18311e-06 30.0007 	-7.34347e-06 	-4.97033e-07 30.0007 	-7.34347e-06 	-4.97033e-07 30.0007 	-7.34347e-06 	-4.97033e-07 30.0007 	-7.34346e-06 	-4.97032e-07 30.0004 	-1.10613e-07 	-2.17108e-06 30.0007 	-7.21565e-06 	-3.17306e-07 30.0007 	-7.21565e-06 	-3.17306e-07 30.0007 	-7.21565e-06 	-3.17306e-07 30.0007 	-7.21565e-06 	-3.17306e-07 30.0004 	-1.12274e-07 	-1.85334e-06 30.0007 	-7.09889e-06 	-1.38199e-07 30.0007 	-7.09889e-06 	-1.38199e-07 30.0007 	-7.09889e-06 	-1.38199e-07 30.0007 	-7.09889e-06 	-1.38199e-07 30.0004 	-1.13922e-07 	-1.549e-06 30.0007 	-6.98555e-06 	4.08641e-08 30.0007 	-6.98555e-06 	4.08641e-08 30.0007 	-6.98555e-06 	4.08641e-08 30.0007 	-6.98555e-06 	4.08641e-08 30.0004 	-2.43899e-06 	-9.58493e-07 30.0007 	-6.87194e-06 	2.14685e-07 30.0007 	-6.87194e-06 	2.14685e-07 30.0007 	-6.87194e-06 	2.14685e-07 30.0007 	-6.87194e-06 	2.14685e-07 30.0004 	-2.34737e-06 	-6.82292e-07 30.0007 	-6.75374e-06 	3.90735e-07 30.0007 	-6.75374e-06 	3.90735e-07 30.0007 	-6.75374e-06 	3.90736e-07 30.0007 	-6.75374e-06 	3.90736e-07 30.0004 	-1.1884e-07 	-7.09747e-07 30.0007 	-6.64319e-06 	5.64384e-07 30.0007 	-6.64319e-06 	5.64384e-07 30.0007 	-6.64319e-06 	5.64384e-07 30.0007 	-6.64319e-06 	5.64384e-07 30.0004 	-2.16699e-06 	-1.45432e-07 30.0007 	-6.5362e-06 	7.27409e-07 30.0007 	-6.53621e-06 	7.27409e-07 30.0007 	-6.53621e-06 	7.27409e-07 30.0007 	-6.53621e-06 	7.2741e-07 30.0004 	-2.08131e-06 	1.13849e-07 30.0007 	-6.4309e-06 	8.78855e-07 30.0007 	-6.4309e-06 	8.78855e-07 30.0007 	-6.4309e-06 	8.78855e-07 30.0007 	-6.4309e-06 	8.78855e-07 30.0004 	-1.23729e-07 	7.06079e-08 30.0007 	-6.3233e-06 	1.0178e-06 30.0007 	-6.3233e-06 	1.0178e-06 30.0007 	-6.3233e-06 	1.0178e-06 30.0007 	-6.32331e-06 	1.0178e-06 30.0004 	-1.25314e-07 	3.15839e-07 30.0007 	-6.21692e-06 	1.14063e-06 30.0007 	-6.21692e-06 	1.14063e-06 30.0007 	-6.21692e-06 	1.14063e-06 30.0007 	-6.21693e-06 	1.14063e-06 30.0004 	-1.26893e-07 	5.45555e-07 30.0007 	-6.11564e-06 	1.25633e-06 30.0007 	-6.11564e-06 	1.25633e-06 30.0007 	-6.11564e-06 	1.25633e-06 30.0007 	-6.11565e-06 	1.25633e-06 30.0004 	-1.76448e-06 	1.03209e-06 30.0007 	-6.02291e-06 	1.37129e-06 30.0007 	-6.02291e-06 	1.37129e-06 30.0007 	-6.02292e-06 	1.37129e-06 30.0007 	-6.02292e-06 	1.37129e-06 30.0004 	-1.29984e-07 	9.36973e-07 30.0007 	-5.94326e-06 	1.48851e-06 30.0007 	-5.94326e-06 	1.48852e-06 30.0007 	-5.94326e-06 	1.48852e-06 30.0007 	-5.94327e-06 	1.48852e-06 30.0004 	-1.31484e-07 	1.10459e-06 30.0007 	-5.87204e-06 	1.5929e-06 30.0007 	-5.87205e-06 	1.5929e-06 30.0007 	-5.87205e-06 	1.5929e-06 30.0007 	-5.87205e-06 	1.59291e-06 30.0004 	-1.5916e-06 	1.53879e-06 30.0007 	-5.80244e-06 	1.67933e-06 30.0007 	-5.80244e-06 	1.67933e-06 30.0007 	-5.80245e-06 	1.67933e-06 30.0007 	-5.80245e-06 	1.67933e-06 30.0003 	-1.54439e-06 	1.67824e-06 30.0007 	-5.73434e-06 	1.75012e-06 30.0007 	-5.73434e-06 	1.75012e-06 30.0007 	-5.73434e-06 	1.75012e-06 30.0007 	-5.73435e-06 	1.75013e-06 30.0003 	-1.36192e-07 	1.52477e-06 30.0006 	-5.6692e-06 	1.80982e-06 30.0006 	-5.6692e-06 	1.80983e-06 30.0006 	-5.66921e-06 	1.80983e-06 30.0006 	-5.66921e-06 	1.80983e-06 30.0003 	-1.37749e-07 	1.63231e-06 30.0006 	-5.60912e-06 	1.85996e-06 30.0006 	-5.60913e-06 	1.85996e-06 30.0006 	-5.60913e-06 	1.85996e-06 30.0006 	-5.60914e-06 	1.85996e-06 30.0003 	-1.39224e-07 	1.72404e-06 30.0006 	-5.55484e-06 	1.90045e-06 30.0006 	-5.55485e-06 	1.90045e-06 30.0006 	-5.55485e-06 	1.90045e-06 30.0006 	-5.55485e-06 	1.90045e-06 30.0003 	-1.38908e-06 	2.07106e-06 30.0006 	-5.50603e-06 	1.93111e-06 30.0006 	-5.50603e-06 	1.93112e-06 30.0006 	-5.50604e-06 	1.93112e-06 30.0006 	-5.50604e-06 	1.93112e-06 30.0003 	-1.36206e-06 	2.131e-06 30.0006 	-5.46228e-06 	1.95185e-06 30.0006 	-5.46228e-06 	1.95185e-06 30.0006 	-5.46228e-06 	1.95185e-06 30.0006 	-5.46229e-06 	1.95186e-06 30.0003 	-1.43267e-07 	1.9083e-06 30.0006 	-5.42347e-06 	1.9628e-06 30.0006 	-5.42347e-06 	1.9628e-06 30.0006 	-5.42348e-06 	1.9628e-06 30.0006 	-5.42348e-06 	1.9628e-06 30.0003 	-1.32367e-06 	2.20769e-06 30.0006 	-5.38953e-06 	1.96433e-06 30.0006 	-5.38953e-06 	1.96433e-06 30.0006 	-5.38953e-06 	1.96433e-06 30.0006 	-5.38954e-06 	1.96433e-06 30.0003 	-1.3119e-06 	2.22558e-06 30.0006 	-5.36037e-06 	1.95694e-06 30.0006 	-5.36037e-06 	1.95694e-06 30.0006 	-5.36038e-06 	1.95694e-06 30.0006 	-5.36038e-06 	1.95694e-06 30.0003 	-1.47167e-07 	1.96621e-06 30.0005 	-5.33591e-06 	1.94114e-06 30.0005 	-5.33591e-06 	1.94114e-06 30.0005 	-5.33592e-06 	1.94114e-06 30.0005 	-5.33592e-06 	1.94114e-06 30.0003 	-1.48433e-07 	1.96061e-06 30.0005 	-5.31592e-06 	1.91795e-06 30.0005 	-5.31592e-06 	1.91795e-06 30.0005 	-5.31593e-06 	1.91795e-06 30.0005 	-5.31593e-06 	1.91795e-06 30.0003 	-1.49648e-07 	1.94428e-06 30.0005 	-5.30032e-06 	1.88801e-06 30.0005 	-5.30032e-06 	1.88802e-06 30.0005 	-5.30033e-06 	1.88802e-06 30.0005 	-5.30033e-06 	1.88802e-06 30.0003 	-1.30935e-06 	2.17904e-06 30.0005 	-5.28899e-06 	1.85192e-06 30.0005 	-5.28899e-06 	1.85192e-06 30.0005 	-5.289e-06 	1.85192e-06 30.0005 	-5.289e-06 	1.85192e-06 30.0003 	-1.52e-07 	1.88234e-06 30.0005 	-5.28173e-06 	1.8101e-06 30.0005 	-5.28173e-06 	1.8101e-06 30.0005 	-5.28174e-06 	1.8101e-06 30.0005 	-5.28174e-06 	1.8101e-06 30.0003 	-1.53123e-07 	1.83822e-06 30.0005 	-5.27829e-06 	1.76318e-06 30.0005 	-5.27829e-06 	1.76318e-06 30.0005 	-5.2783e-06 	1.76318e-06 30.0005 	-5.2783e-06 	1.76318e-06 30.0003 	-1.34858e-06 	2.04412e-06 30.0005 	-5.27848e-06 	1.71165e-06 30.0005 	-5.27848e-06 	1.71165e-06 30.0005 	-5.27849e-06 	1.71165e-06 30.0005 	-5.27849e-06 	1.71165e-06 30.0003 	-1.36865e-06 	1.98428e-06 30.0005 	-5.28202e-06 	1.65601e-06 30.0005 	-5.28202e-06 	1.65602e-06 30.0005 	-5.28203e-06 	1.65602e-06 30.0005 	-5.28203e-06 	1.65602e-06 30.0002 	-1.56346e-07 	1.66286e-06 30.0005 	-5.28882e-06 	1.5967e-06 30.0005 	-5.28882e-06 	1.5967e-06 30.0005 	-5.28883e-06 	1.59671e-06 30.0005 	-5.28883e-06 	1.59671e-06 30.0002 	-1.574e-07 	1.59261e-06 30.0004 	-5.29876e-06 	1.53418e-06 30.0004 	-5.29877e-06 	1.53418e-06 30.0004 	-5.29877e-06 	1.53418e-06 30.0004 	-5.29877e-06 	1.53418e-06 30.0002 	-1.58477e-07 	1.51774e-06 30.0004 	-5.31172e-06 	1.46892e-06 30.0004 	-5.31172e-06 	1.46892e-06 30.0004 	-5.31172e-06 	1.46892e-06 30.0004 	-5.31173e-06 	1.46892e-06 30.0002 	-1.48031e-06 	1.69067e-06 30.0004 	-5.32728e-06 	1.40147e-06 30.0004 	-5.32728e-06 	1.40147e-06 30.0004 	-5.32728e-06 	1.40147e-06 30.0004 	-5.32729e-06 	1.40147e-06 30.0002 	-1.51484e-06 	1.60718e-06 30.0004 	-5.34515e-06 	1.33222e-06 30.0004 	-5.34515e-06 	1.33222e-06 30.0004 	-5.34516e-06 	1.33222e-06 30.0004 	-5.34516e-06 	1.33222e-06 30.0002 	-1.61723e-07 	1.27192e-06 30.0004 	-5.36514e-06 	1.2615e-06 30.0004 	-5.36514e-06 	1.26151e-06 30.0004 	-5.36514e-06 	1.26151e-06 30.0004 	-5.36515e-06 	1.26151e-06 30.0002 	-1.59016e-06 	1.43254e-06 30.0004 	-5.38698e-06 	1.18983e-06 30.0004 	-5.38698e-06 	1.18983e-06 30.0004 	-5.38698e-06 	1.18983e-06 30.0004 	-5.38698e-06 	1.18984e-06 30.0002 	-1.63065e-06 	1.34246e-06 30.0004 	-5.41062e-06 	1.11751e-06 30.0004 	-5.41062e-06 	1.11751e-06 30.0004 	-5.41062e-06 	1.11751e-06 30.0004 	-5.41062e-06 	1.11751e-06 30.0002 	-1.6474e-07 	1.00614e-06 30.0004 	-5.43571e-06 	1.04483e-06 30.0004 	-5.43572e-06 	1.04483e-06 30.0004 	-5.43572e-06 	1.04483e-06 30.0004 	-5.43572e-06 	1.04483e-06 30.0002 	-1.65681e-07 	9.15665e-07 30.0004 	-5.46138e-06 	9.72292e-07 30.0004 	-5.46138e-06 	9.72292e-07 30.0004 	-5.46139e-06 	9.72293e-07 30.0004 	-5.46139e-06 	9.72293e-07 30.0002 	-1.66586e-07 	8.25042e-07 30.0004 	-5.48744e-06 	8.9951e-07 30.0004 	-5.48744e-06 	8.99511e-07 30.0004 	-5.48744e-06 	8.99511e-07 30.0004 	-5.48744e-06 	8.99511e-07 30.0002 	-1.80755e-06 	9.75463e-07 30.0004 	-5.51425e-06 	8.25979e-07 30.0004 	-5.51425e-06 	8.25979e-07 30.0004 	-5.51425e-06 	8.25979e-07 30.0004 	-5.51425e-06 	8.2598e-07 30.0002 	-1.68297e-07 	6.43675e-07 30.0003 	-5.544e-06 	7.52019e-07 30.0003 	-5.544e-06 	7.52019e-07 30.0003 	-5.54401e-06 	7.52019e-07 30.0003 	-5.54401e-06 	7.52019e-07 30.0002 	-1.69116e-07 	5.52679e-07 30.0003 	-5.57849e-06 	6.77474e-07 30.0003 	-5.57849e-06 	6.77474e-07 30.0003 	-5.57849e-06 	6.77474e-07 30.0003 	-5.57849e-06 	6.77474e-07 30.0002 	-1.95593e-06 	7.01354e-07 30.0003 	-5.61536e-06 	6.0441e-07 30.0003 	-5.61536e-06 	6.0441e-07 30.0003 	-5.61536e-06 	6.0441e-07 30.0003 	-5.61536e-06 	6.0441e-07 30.0002 	-2.00811e-06 	6.11723e-07 30.0003 	-5.65139e-06 	5.3469e-07 30.0003 	-5.6514e-06 	5.3469e-07 30.0003 	-5.6514e-06 	5.3469e-07 30.0003 	-5.6514e-06 	5.3469e-07 30.0002 	-1.71597e-07 	2.80983e-07 30.0003 	-5.6825e-06 	4.67667e-07 30.0003 	-5.6825e-06 	4.67667e-07 30.0003 	-5.6825e-06 	4.67667e-07 30.0003 	-5.6825e-06 	4.67667e-07 30.0002 	-1.7242e-07 	1.97368e-07 30.0003 	-5.71091e-06 	4.03222e-07 30.0003 	-5.71091e-06 	4.03222e-07 30.0003 	-5.71091e-06 	4.03222e-07 30.0003 	-5.71091e-06 	4.03222e-07 30.0002 	-1.73215e-07 	1.16436e-07 30.0003 	-5.73908e-06 	3.39258e-07 30.0003 	-5.73908e-06 	3.39258e-07 30.0003 	-5.73908e-06 	3.39258e-07 30.0003 	-5.73908e-06 	3.39259e-07 30.0002 	-2.20135e-06 	2.74118e-07 30.0003 	-5.76706e-06 	2.75298e-07 30.0003 	-5.76706e-06 	2.75298e-07 30.0003 	-5.76706e-06 	2.75298e-07 30.0003 	-5.76706e-06 	2.75298e-07 30.0002 	-2.24827e-06 	1.96374e-07 30.0003 	-5.79374e-06 	2.10807e-07 30.0003 	-5.79374e-06 	2.10807e-07 30.0003 	-5.79374e-06 	2.10807e-07 30.0003 	-5.79374e-06 	2.10807e-07 30.0002 	-1.75352e-07 	-1.09116e-07 30.0003 	-5.8217e-06 	1.48792e-07 30.0003 	-5.8217e-06 	1.48792e-07 30.0003 	-5.8217e-06 	1.48792e-07 30.0003 	-5.8217e-06 	1.48792e-07 30.0002 	-2.34201e-06 	4.46833e-08 30.0003 	-5.85096e-06 	8.99968e-08 30.0003 	-5.85096e-06 	8.99968e-08 30.0003 	-5.85096e-06 	8.99969e-08 30.0003 	-5.85096e-06 	8.99969e-08 30.0002 	-2.38931e-06 	-2.90899e-08 30.0003 	-5.88137e-06 	3.48316e-08 30.0003 	-5.88137e-06 	3.48316e-08 30.0003 	-5.88137e-06 	3.48316e-08 30.0003 	-5.88137e-06 	3.48316e-08 30.0002 	-1.77319e-07 	-3.30746e-07 30.0003 	-5.91304e-06 	-1.70583e-08 30.0003 	-5.91304e-06 	-1.70583e-08 30.0003 	-5.91304e-06 	-1.70583e-08 30.0003 	-5.91304e-06 	-1.70583e-08 30.0002 	-1.77927e-07 	-4.01784e-07 30.0003 	-5.94615e-06 	-6.90395e-08 30.0003 	-5.94615e-06 	-6.90395e-08 30.0003 	-5.94615e-06 	-6.90395e-08 30.0003 	-5.94615e-06 	-6.90395e-08 30.0002 	-1.78529e-07 	-4.67058e-07 30.0003 	-5.97811e-06 	-1.23303e-07 30.0003 	-5.97811e-06 	-1.23303e-07 30.0003 	-5.97811e-06 	-1.23303e-07 30.0003 	-5.97811e-06 	-1.23303e-07 30.0002 	-2.58079e-06 	-3.0137e-07 30.0003 	-6.0059e-06 	-1.77946e-07 30.0003 	-6.00589e-06 	-1.77946e-07 30.0003 	-6.00589e-06 	-1.77946e-07 30.0003 	-6.00589e-06 	-1.77946e-07 30.0002 	-1.7971e-07 	-5.84872e-07 30.0003 	-6.03002e-06 	-2.29205e-07 30.0003 	-6.03002e-06 	-2.29205e-07 30.0003 	-6.03002e-06 	-2.29205e-07 30.0003 	-6.03002e-06 	-2.29205e-07 30.0002 	-1.80291e-07 	-6.42137e-07 30.0003 	-6.05325e-06 	-2.76168e-07 30.0003 	-6.05325e-06 	-2.76168e-07 30.0003 	-6.05325e-06 	-2.76168e-07 30.0003 	-6.05325e-06 	-2.76168e-07 30.0002 	-2.70885e-06 	-4.78975e-07 30.0003 	-6.0771e-06 	-3.19646e-07 30.0003 	-6.0771e-06 	-3.19646e-07 30.0003 	-6.0771e-06 	-3.19646e-07 30.0003 	-6.0771e-06 	-3.19646e-07 30.0002 	-2.74986e-06 	-5.34019e-07 30.0003 	-6.10127e-06 	-3.61182e-07 30.0003 	-6.10127e-06 	-3.61182e-07 30.0003 	-6.10127e-06 	-3.61182e-07 30.0003 	-6.10127e-06 	-3.61182e-07 30.0002 	-1.82006e-07 	-8.03777e-07 30.0003 	-6.12529e-06 	-4.01378e-07 30.0003 	-6.12529e-06 	-4.01378e-07 30.0003 	-6.12529e-06 	-4.01378e-07 30.0003 	-6.12529e-06 	-4.01378e-07 30.0001 	-1.82547e-07 	-8.53098e-07 30.0003 	-6.14868e-06 	-4.40372e-07 30.0003 	-6.14868e-06 	-4.40372e-07 30.0003 	-6.14868e-06 	-4.40372e-07 30.0003 	-6.14868e-06 	-4.40371e-07 30.0001 	-1.83079e-07 	-9.00308e-07 30.0003 	-6.17133e-06 	-4.77991e-07 30.0003 	-6.17133e-06 	-4.7799e-07 30.0003 	-6.17133e-06 	-4.7799e-07 30.0003 	-6.17133e-06 	-4.7799e-07 30.0001 	-2.90932e-06 	-7.31451e-07 30.0003 	-6.19312e-06 	-5.14202e-07 30.0003 	-6.19312e-06 	-5.14202e-07 30.0003 	-6.19312e-06 	-5.14202e-07 30.0003 	-6.19312e-06 	-5.14202e-07 30.0001 	-2.94719e-06 	-7.75578e-07 30.0003 	-6.21398e-06 	-5.48828e-07 30.0003 	-6.21397e-06 	-5.48828e-07 30.0003 	-6.21397e-06 	-5.48828e-07 30.0003 	-6.21397e-06 	-5.48828e-07 30.0001 	-1.84568e-07 	-1.02952e-06 30.0003 	-6.23403e-06 	-5.82046e-07 30.0003 	-6.23403e-06 	-5.82046e-07 30.0003 	-6.23403e-06 	-5.82046e-07 30.0003 	-6.23402e-06 	-5.82046e-07 30.0001 	-3.02015e-06 	-8.57469e-07 30.0003 	-6.2533e-06 	-6.13887e-07 30.0003 	-6.2533e-06 	-6.13886e-07 30.0003 	-6.2533e-06 	-6.13886e-07 30.0003 	-6.2533e-06 	-6.13886e-07 30.0001 	-3.05524e-06 	-8.95475e-07 30.0003 	-6.27178e-06 	-6.44408e-07 30.0003 	-6.27178e-06 	-6.44408e-07 30.0003 	-6.27177e-06 	-6.44408e-07 30.0003 	-6.27177e-06 	-6.44408e-07 30.0001 	-1.8596e-07 	-1.14084e-06 30.0003 	-6.28943e-06 	-6.7361e-07 30.0003 	-6.28943e-06 	-6.7361e-07 30.0003 	-6.28943e-06 	-6.7361e-07 30.0003 	-6.28943e-06 	-6.7361e-07 30.0001 	-1.86395e-07 	-1.17459e-06 30.0003 	-6.30644e-06 	-7.01429e-07 30.0003 	-6.30644e-06 	-7.01428e-07 30.0003 	-6.30644e-06 	-7.01428e-07 30.0003 	-6.30644e-06 	-7.01428e-07 30.0001 	-1.86842e-07 	-1.20668e-06 30.0003 	-6.32253e-06 	-7.2786e-07 30.0003 	-6.32253e-06 	-7.27859e-07 30.0003 	-6.32253e-06 	-7.27859e-07 30.0003 	-6.32253e-06 	-7.27859e-07 30.0001 	-3.18666e-06 	-1.031e-06 30.0003 	-6.3378e-06 	-7.52971e-07 30.0003 	-6.3378e-06 	-7.52971e-07 30.0003 	-6.3378e-06 	-7.52971e-07 30.0003 	-6.33779e-06 	-7.5297e-07 30.0001 	-1.87705e-07 	-1.26597e-06 30.0003 	-6.35231e-06 	-7.7694e-07 30.0003 	-6.3523e-06 	-7.76939e-07 30.0003 	-6.3523e-06 	-7.76939e-07 30.0003 	-6.3523e-06 	-7.76939e-07 30.0001 	-1.88106e-07 	-1.29332e-06 30.0003 	-6.3661e-06 	-7.9981e-07 30.0003 	-6.3661e-06 	-7.9981e-07 30.0003 	-6.3661e-06 	-7.99809e-07 30.0003 	-6.36609e-06 	-7.99809e-07 30.0001 	-3.27604e-06 	-1.11605e-06 30.0003 	-6.37917e-06 	-8.21537e-07 30.0003 	-6.37917e-06 	-8.21536e-07 30.0003 	-6.37917e-06 	-8.21536e-07 30.0003 	-6.37917e-06 	-8.21536e-07 30.0001 	-3.30414e-06 	-1.14152e-06 30.0003 	-6.39142e-06 	-8.41975e-07 30.0003 	-6.39142e-06 	-8.41975e-07 30.0003 	-6.39142e-06 	-8.41975e-07 30.0003 	-6.39142e-06 	-8.41974e-07 30.0001 	-1.89279e-07 	-1.36687e-06 30.0003 	-6.40303e-06 	-8.61367e-07 30.0003 	-6.40303e-06 	-8.61366e-07 30.0003 	-6.40303e-06 	-8.61366e-07 30.0003 	-6.40303e-06 	-8.61366e-07 30.0001 	-1.89656e-07 	-1.38874e-06 30.0003 	-6.41396e-06 	-8.79804e-07 30.0003 	-6.41396e-06 	-8.79804e-07 30.0003 	-6.41396e-06 	-8.79804e-07 30.0003 	-6.41396e-06 	-8.79804e-07 30.0001 	-1.9003e-07 	-1.40939e-06 30.0003 	-6.4242e-06 	-8.97288e-07 30.0003 	-6.4242e-06 	-8.97288e-07 30.0003 	-6.4242e-06 	-8.97287e-07 30.0003 	-6.42419e-06 	-8.97287e-07 30.0001 	-3.40842e-06 	-1.23052e-06 30.0003 	-6.43377e-06 	-9.13872e-07 30.0003 	-6.43377e-06 	-9.13872e-07 30.0003 	-6.43377e-06 	-9.13872e-07 30.0003 	-6.43376e-06 	-9.13871e-07 30.0001 	-3.43254e-06 	-1.24985e-06 30.0003 	-6.44261e-06 	-9.29562e-07 30.0003 	-6.44261e-06 	-9.29561e-07 30.0003 	-6.4426e-06 	-9.29561e-07 30.0003 	-6.4426e-06 	-9.29561e-07 30.0001 	-1.91082e-07 	-1.46456e-06 30.0003 	-6.45084e-06 	-9.44418e-07 30.0003 	-6.45084e-06 	-9.44418e-07 30.0003 	-6.45084e-06 	-9.44417e-07 30.0003 	-6.45083e-06 	-9.44417e-07 30.0001 	-3.47858e-06 	-1.28534e-06 30.0003 	-6.45851e-06 	-9.58424e-07 30.0003 	-6.4585e-06 	-9.58423e-07 30.0003 	-6.4585e-06 	-9.58423e-07 30.0003 	-6.4585e-06 	-9.58422e-07 30.0001 	-3.50062e-06 	-1.3016e-06 30.0003 	-6.46557e-06 	-9.71716e-07 30.0003 	-6.46557e-06 	-9.71715e-07 30.0003 	-6.46557e-06 	-9.71715e-07 30.0003 	-6.46556e-06 	-9.71715e-07 30.0001 	-1.9