# vtk DataFile Version 2.0
track0
ASCII
DATASET POLYDATA
POINTS 15780 float
-1.001 -0.05 0.0011
-1.0008 -0.05 0.0011
-1.0006 -0.05 0.0011
-1.0004 -0.05 0.0011
-1.0002 -0.05 0.0011
-1 -0.05 0.0011
-0.9875 -0.05 0.0011
-0.975 -0.05 0.0011
-0.9625 -0.05 0.0011
-0.95 -0.05 0.0011
-0.9375 -0.05 0.00109999
-0.925 -0.05 0.00109999
-0.9125 -0.05 0.00109999
-0.9 -0.05 0.00109999
-0.8875 -0.05 0.00109999
-0.875 -0.05 0.00109999
-0.8625 -0.05 0.00109999
-0.85 -0.05 0.00109999
-0.8375 -0.05 0.00109998
-0.825 -0.0500001 0.00109998
-0.8125 -0.0500001 0.00109998
-0.8 -0.0500001 0.00109998
-0.7875 -0.0500001 0.00109998
-0.775 -0.0500001 0.00109998
-0.7625 -0.0500001 0.00109998
-0.75 -0.0500001 0.00109998
-0.7375 -0.0500001 0.00109997
-0.725 -0.0500001 0.00109997
-0.7125 -0.0500001 0.00109997
-0.7 -0.0500001 0.00109997
-0.6875 -0.0500001 0.00109997
-0.675 -0.0500001 0.00109997
-0.6625 -0.0500001 0.00109997
-0.65 -0.0500001 0.00109996
-0.6375 -0.0500001 0.00109996
-0.625 -0.0500001 0.00109996
-0.6125 -0.0500001 0.00109996
-0.6 -0.0500001 0.00109996
-0.5875 -0.0500001 0.00109996
-0.575 -0.0500001 0.00109996
-0.5625 -0.0500001 0.00109996
-0.55 -0.0500001 0.00109995
-0.5375 -0.0500001 0.00109995
-0.525 -0.0500001 0.00109995
-0.5125 -0.0500001 0.00109995
-0.5 -0.0500001 0.00109995
-0.4875 -0.0500001 0.00109995
-0.475 -0.0500001 0.00109995
-0.4625 -0.0500001 0.00109994
-0.45 -0.0500002 0.00109994
-0.4375 -0.0500002 0.00109994
-0.425 -0.0500002 0.00109994
-0.4125 -0.0500002 0.00109994
-0.4 -0.0500002 0.00109994
-0.3875 -0.0500002 0.00109994
-0.375 -0.0500002 0.00109994
-0.3625 -0.0500002 0.00109993
-0.35 -0.0500002 0.00109993
-0.3375 -0.0500002 0.00109993
-0.325 -0.0500002 0.00109993
-0.3125 -0.0500002 0.00109993
-0.3 -0.0500002 0.00109993
-0.2875 -0.0500002 0.00109993
-0.275 -0.0500002 0.00109993
-0.2625 -0.0500002 0.00109992
-0.25 -0.0500002 0.00109992
-0.2375 -0.0500002 0.00109992
-0.225 -0.0500002 0.00109992
-0.2125 -0.0500002 0.00109992
-0.2 -0.0500002 0.00109992
-0.1875 -0.0500002 0.00109992
-0.175 -0.0500002 0.00109992
-0.1625 -0.0500002 0.00109991
-0.15 -0.0500002 0.00109991
-0.1375 -0.0500002 0.00109991
-0.125 -0.0500002 0.00109991
-0.1125 -0.0500002 0.00109991
-0.1 -0.0500002 0.00109991
-0.0875 -0.0500002 0.00109991
-0.075 -0.0500002 0.00109991
-0.0625 -0.0500002 0.00109991
-0.05 -0.0500003 0.00109991
-0.0375 -0.0500003 0.0010999
-0.025 -0.0500003 0.0010999
-0.0125 -0.0500003 0.0010999
2.10607e-13 -0.0500003 0.0010999
0.0125 -0.0500003 0.0010999
0.025 -0.0500003 0.0010999
0.0375 -0.0500003 0.0010999
0.05 -0.0500003 0.0010999
0.0625 -0.0500003 0.0010999
0.075 -0.0500003 0.0010999
0.0875 -0.0500003 0.0010999
0.1 -0.0500003 0.00109989
0.1125 -0.0500003 0.00109989
0.125 -0.0500003 0.00109989
0.1375 -0.0500003 0.00109989
0.15 -0.0500003 0.00109989
0.1625 -0.0500003 0.00109989
0.175 -0.0500003 0.00109989
0.1875 -0.0500003 0.00109989
0.2 -0.0500003 0.00109989
0.2125 -0.0500003 0.00109989
0.225 -0.0500003 0.00109989
0.2375 -0.0500003 0.00109989
0.25 -0.0500003 0.00109989
0.2625 -0.0500003 0.00109988
0.275 -0.0500003 0.00109988
0.2875 -0.0500003 0.00109988
0.3 -0.0500003 0.00109988
0.3125 -0.0500003 0.00109988
0.325 -0.0500003 0.00109988
0.3375 -0.0500003 0.00109988
0.35 -0.0500003 0.00109988
0.3625 -0.0500003 0.00109988
0.375 -0.0500003 0.00109988
0.3875 -0.0500003 0.00109988
0.4 -0.0500004 0.00109988
0.4125 -0.0500004 0.00109988
0.425 -0.0500004 0.00109988
0.4375 -0.0500004 0.00109988
0.45 -0.0500004 0.00109988
0.4625 -0.0500004 0.00109988
0.475 -0.0500004 0.00109988
0.4875 -0.0500004 0.00109988
0.5 -0.0500004 0.00109988
0.5125 -0.0500004 0.00109988
0.525 -0.0500004 0.00109988
0.5375 -0.0500004 0.00109988
0.55 -0.0500004 0.00109988
0.5625 -0.0500004 0.00109988
0.575 -0.0500004 0.00109987
0.5875 -0.0500004 0.00109987
0.6 -0.0500004 0.00109987
0.6125 -0.0500004 0.00109987
0.625 -0.0500004 0.00109987
0.6375 -0.0500004 0.00109987
0.65 -0.0500004 0.00109987
0.6625 -0.0500004 0.00109987
0.675 -0.0500004 0.00109987
0.6875 -0.0500004 0.00109987
0.7 -0.0500004 0.00109987
0.7125 -0.0500004 0.00109987
0.725 -0.0500004 0.00109987
0.7375 -0.0500004 0.00109987
0.75 -0.0500004 0.00109987
0.7625 -0.0500004 0.00109987
0.775 -0.0500004 0.00109987
0.7875 -0.0500004 0.00109987
0.8 -0.0500004 0.00109987
0.8125 -0.0500004 0.00109987
0.825 -0.0500004 0.00109987
0.8375 -0.0500004 0.00109987
0.85 -0.0500004 0.00109987
0.8625 -0.0500004 0.00109987
0.875 -0.0500004 0.00109987
0.8875 -0.0500004 0.00109987
0.9 -0.0500004 0.00109987
0.9125 -0.0500005 0.00109988
0.925 -0.0500005 0.00109988
0.9375 -0.0500005 0.00109988
0.95 -0.0500005 0.00109988
0.9625 -0.0500005 0.00109988
0.975 -0.0500005 0.00109988
0.9875 -0.0500005 0.00109988
1 -0.0500005 0.00109988
1.0125 -0.0500005 0.00109988
1.025 -0.0500005 0.00109988
1.0375 -0.0500005 0.00109988
1.05 -0.0500005 0.00109988
1.0625 -0.0500005 0.00109988
1.075 -0.0500005 0.00109988
1.0875 -0.0500005 0.00109988
1.1 -0.0500005 0.00109988
1.1125 -0.0500005 0.00109988
1.125 -0.0500005 0.00109988
1.1375 -0.0500005 0.00109988
1.15 -0.0500005 0.00109988
1.1625 -0.0500005 0.00109988
1.175 -0.0500005 0.00109988
1.1875 -0.0500005 0.00109988
1.2 -0.0500005 0.00109988
1.2125 -0.0500005 0.00109988
1.225 -0.0500005 0.00109988
1.2375 -0.0500005 0.00109989
1.25 -0.0500005 0.00109989
1.2625 -0.0500005 0.00109989
1.275 -0.0500005 0.00109989
1.2875 -0.0500005 0.00109989
1.3 -0.0500005 0.00109989
1.3125 -0.0500005 0.00109989
1.325 -0.0500005 0.00109989
1.3375 -0.0500005 0.00109989
1.35 -0.0500005 0.00109989
1.3625 -0.0500005 0.00109989
1.375 -0.0500005 0.00109989
1.3875 -0.0500005 0.00109989
1.4 -0.0500005 0.00109989
1.4125 -0.0500005 0.00109989
1.425 -0.0500005 0.00109989
1.4375 -0.0500005 0.0010999
1.45 -0.0500005 0.0010999
1.4625 -0.0500005 0.0010999
1.475 -0.0500005 0.0010999
1.4875 -0.0500005 0.0010999
1.5 -0.0500006 0.0010999
1.5125 -0.0500006 0.0010999
1.525 -0.0500006 0.0010999
1.5375 -0.0500006 0.0010999
1.55 -0.0500006 0.0010999
1.5625 -0.0500006 0.0010999
1.575 -0.0500006 0.0010999
1.5875 -0.0500006 0.0010999
1.6 -0.0500006 0.0010999
1.6125 -0.0500006 0.00109991
1.625 -0.0500006 0.00109991
1.6375 -0.0500006 0.00109991
1.65 -0.0500006 0.00109991
1.6625 -0.0500006 0.00109991
1.675 -0.0500006 0.00109991
1.6875 -0.0500006 0.00109991
1.7 -0.0500006 0.00109991
1.7125 -0.0500006 0.00109991
1.725 -0.0500006 0.00109991
1.7375 -0.0500006 0.00109991
1.75 -0.0500006 0.00109991
1.7625 -0.0500006 0.00109992
1.775 -0.0500006 0.00109992
1.7875 -0.0500006 0.00109992
1.8 -0.0500006 0.00109992
1.8125 -0.0500006 0.00109992
1.825 -0.0500006 0.00109992
1.8375 -0.0500006 0.00109992
1.85 -0.0500006 0.00109992
1.8625 -0.0500006 0.00109992
1.875 -0.0500006 0.00109992
1.8875 -0.0500006 0.00109992
1.9 -0.0500006 0.00109992
1.9125 -0.0500006 0.00109993
1.925 -0.0500006 0.00109993
1.9375 -0.0500006 0.00109993
1.95 -0.0500006 0.00109993
1.9625 -0.0500006 0.00109993
1.975 -0.0500006 0.00109993
1.9875 -0.0500006 0.00109993
2 -0.0500006 0.00109993
2.0125 -0.0500006 0.00109993
2.025 -0.0500006 0.00109993
2.0375 -0.0500006 0.00109993
2.05 -0.0500006 0.00109993
2.0625 -0.0500006 0.00109994
2.075 -0.0500006 0.00109994
2.0875 -0.0500006 0.00109994
2.1 -0.0500006 0.00109994
2.1125 -0.0500006 0.00109994
2.125 -0.0500006 0.00109994
2.1375 -0.0500006 0.00109994
2.15 -0.0500006 0.00109994
2.1625 -0.0500006 0.00109994
2.175 -0.0500007 0.00109994
2.1875 -0.0500007 0.00109994
2.2 -0.0500007 0.00109994
2.2125 -0.0500007 0.00109994
2.225 -0.0500007 0.00109995
2.2375 -0.0500007 0.00109995
2.25 -0.0500007 0.00109995
2.2625 -0.0500007 0.00109995
2.275 -0.0500007 0.00109995
2.2875 -0.0500007 0.00109995
2.3 -0.0500007 0.00109995
2.3125 -0.0500007 0.00109995
2.325 -0.0500007 0.00109995
2.3375 -0.0500007 0.00109995
2.35 -0.0500007 0.00109995
2.3625 -0.0500007 0.00109995
2.375 -0.0500007 0.00109995
2.3875 -0.0500007 0.00109996
2.4 -0.0500007 0.00109996
2.4125 -0.0500007 0.00109996
2.425 -0.0500007 0.00109996
2.4375 -0.0500007 0.00109996
2.45 -0.0500007 0.00109996
2.4625 -0.0500007 0.00109996
2.475 -0.0500007 0.00109996
2.4875 -0.0500007 0.00109996
2.5 -0.0500007 0.00109996
2.5125 -0.0500007 0.00109996
2.525 -0.0500007 0.00109996
2.5375 -0.0500007 0.00109996
2.55 -0.0500007 0.00109996
2.5625 -0.0500007 0.00109997
2.575 -0.0500007 0.00109997
2.5875 -0.0500007 0.00109997
2.6 -0.0500007 0.00109997
2.6125 -0.0500007 0.00109997
2.625 -0.0500007 0.00109997
2.6375 -0.0500007 0.00109997
2.65 -0.0500007 0.00109997
2.6625 -0.0500007 0.00109997
2.675 -0.0500007 0.00109997
2.6875 -0.0500007 0.00109997
2.7 -0.0500007 0.00109997
2.7125 -0.0500007 0.00109997
2.725 -0.0500007 0.00109997
2.7375 -0.0500007 0.00109997
2.75 -0.0500007 0.00109997
2.7625 -0.0500007 0.00109998
2.775 -0.0500007 0.00109998
2.7875 -0.0500007 0.00109998
2.8 -0.0500007 0.00109998
2.8125 -0.0500007 0.00109998
2.825 -0.0500007 0.00109998
2.8375 -0.0500007 0.00109998
2.85 -0.0500007 0.00109998
2.8625 -0.0500008 0.00109998
2.875 -0.0500008 0.00109998
2.8875 -0.0500008 0.00109998
2.9 -0.0500008 0.00109998
2.9125 -0.0500008 0.00109998
2.925 -0.0500008 0.00109998
2.9375 -0.0500008 0.00109998
2.95 -0.0500008 0.00109998
2.9625 -0.0500008 0.00109998
2.975 -0.0500008 0.00109998
2.9875 -0.0500008 0.00109998
3 -0.0500008 0.00109998
3.0125 -0.0500008 0.00109999
3.025 -0.0500008 0.00109999
3.0375 -0.0500008 0.00109999
3.05 -0.0500008 0.00109999
3.0625 -0.0500008 0.00109999
3.075 -0.0500008 0.00109999
3.0875 -0.0500008 0.00109999
3.1 -0.0500008 0.00109999
3.1125 -0.0500008 0.00109999
3.125 -0.0500008 0.00109999
3.1375 -0.0500008 0.00109999
3.15 -0.0500008 0.00109999
3.1625 -0.0500008 0.00109999
3.175 -0.0500008 0.00109999
3.1875 -0.0500008 0.00109999
3.2 -0.0500008 0.00109999
3.2125 -0.0500008 0.00109999
3.225 -0.0500008 0.00109999
3.2375 -0.0500008 0.00109999
3.25 -0.0500008 0.00109999
3.2625 -0.0500008 0.00109999
3.275 -0.0500008 0.00109999
3.2875 -0.0500008 0.00109999
3.3 -0.0500008 0.00109999
3.3125 -0.0500008 0.00109999
3.325 -0.0500008 0.00109999
3.3375 -0.0500008 0.00109999
3.35 -0.0500008 0.0011
3.3625 -0.0500008 0.0011
[...]
POINT_DATA 15780
 FIELD attributes 2
p 1 15780 float
-0.0310983 -0.0311143 -0.0311304 -0.0311464 -0.0311624 -0.0311785 -0.03211 -0.0330337 -0.0339575 -0.0348812 -0.0359016 -0.0369655 -0.0380319 -0.0390982 -0.0401646 -0.0411843 -0.0421677 -0.0431325 -0.0440973 -0.0450621 -0.0459753 -0.0468731 -0.0477757 -0.0486782 -0.0495808 -0.0504775 -0.0513781 -0.0522796 -0.0531811 -0.0540827 -0.0549835 -0.055891 -0.056799 -0.0577069 -0.0586149 -0.0595224 -0.0604219 -0.0613194 -0.062217 -0.0631145 -0.064009 -0.0648881 -0.0657653 -0.0666424 -0.0675196 -0.0683946 -0.069252 -0.0701073 -0.0709626 -0.0718179 -0.0726713 -0.073506 -0.074338 -0.0751701 -0.0760021 -0.0768318 -0.0776401 -0.0784453 -0.0792504 -0.0800556 -0.0808579 -0.081636 -0.0824103 -0.0831846 -0.0839588 -0.0847295 -0.0854737 -0.0862136 -0.0869536 -0.0876935 -0.0884296 -0.0891369 -0.0898395 -0.090542 -0.0912446 -0.0919426 -0.0926099 -0.093272 -0.0939342 -0.0945963 -0.0952535 -0.095878 -0.0964968 -0.0971157 -0.0977345 -0.0983478 -0.0989268 -0.0995 -0.100073 -0.100646 -0.101214 -0.101746 -0.102272 -0.102799 -0.103325 -0.103845 -0.104329 -0.104807 -0.105285 -0.105762 -0.106234 -0.106668 -0.107095 -0.107522 -0.107948 -0.108368 -0.108748 -0.109121 -0.109494 -0.109867 -0.110232 -0.110556 -0.110874 -0.111191 -0.111508 -0.111817 -0.112085 -0.112345 -0.112605 -0.112866 -0.113118 -0.113328 -0.113531 -0.113734 -0.113936 -0.114131 -0.114283 -0.114427 -0.114572 -0.114716 -0.114851 -0.114944 -0.11503 -0.115115 -0.115201 -0.115278 -0.115314 -0.115343 -0.115372 -0.115401 -0.115422 -0.115404 -0.115378 -0.115353 -0.115328 -0.115295 -0.115224 -0.115147 -0.115069 -0.114991 -0.114906 -0.114784 -0.114654 -0.114525 -0.114395 -0.114258 -0.114084 -0.113903 -0.113722 -0.113541 -0.113352 -0.113129 -0.112898 -0.112667 -0.112437 -0.112199 -0.111929 -0.111652 -0.111376 -0.111099 -0.110815 -0.110501 -0.11018 -0.10986 -0.109539 -0.109212 -0.108855 -0.108493 -0.10813 -0.107768 -0.107399 -0.107002 -0.1066 -0.106198 -0.105796 -0.105389 -0.104955 -0.104517 -0.104079 -0.103641 -0.103197 -0.10273 -0.10226 -0.101789 -0.101319 -0.100844 -0.10035 -0.0998518 -0.0993538 -0.0988557 -0.0983535 -0.0978347 -0.0973122 -0.0967898 -0.0962673 -0.0957411 -0.0952001 -0.0946557 -0.0941114 -0.093567 -0.0930189 -0.092458 -0.0918942 -0.0913304 -0.0907667 -0.0901997 -0.0896221 -0.0890419 -0.0884617 -0.0878815 -0.0872984 -0.0867069 -0.0861135 -0.0855201 -0.0849267 -0.0843311 -0.0837292 -0.0831257 -0.0825222 -0.0819186 -0.0813131 -0.0807034 -0.0800926 -0.0794818 -0.078871 -0.0782587 -0.0776442 -0.0770288 -0.0764134 -0.075798 -0.0751814 -0.0745644 -0.073947 -0.0733296 -0.0727121 -0.072094 -0.0714773 -0.0708603 -0.0702433 -0.0696263 -0.0690087 -0.0683942 -0.0677798 -0.0671655 -0.0665512 -0.0659368 -0.0653267 -0.064717 -0.0641074 -0.0634977 -0.062888 -0.0622841 -0.0616809 -0.0610777 -0.0604745 -0.0598718 -0.0592759 -0.0586808 -0.0580858 -0.0574908 -0.0568964 -0.0563099 -0.0557247 -0.0551394 -0.0545542 -0.0539699 -0.0533945 -0.0528203 -0.0522462 -0.0516721 -0.0510991 -0.0505357 -0.0499739 -0.0494121 -0.0488504 -0.04829 -0.04774 -0.0471917 -0.0466433 -0.0460949 -0.0455481 -0.0450121 -0.0444781 -0.043944 -0.04341 -0.0428777 -0.0423568 -0.0418379 -0.041319 -0.0408 -0.0402829 -0.0397775 -0.0392743 -0.0387711 -0.0382679 -0.0377667 -0.0372776 -0.0367906 -0.0363037 -0.0358167 -0.0353318 -0.0348591 -0.0343887 -0.0339184 -0.033448 -0.0329799 -0.0325241 -0.0320707 -0.0316172 -0.0311637 -0.0307124 -0.0302736 -0.0298372 -0.0294008 -0.0289644 -0.0285303 -0.0281086 -0.0276893 -0.0272699 -0.0268506 -0.0264336 -0.026029 -0.0256268 -0.0252245 -0.0248223 -0.0244225 -0.0240349 -0.0236498 -0.0232647 -0.0228796 -0.0224969 -0.0221265 -0.0217586 -0.0213907 -0.0210228 -0.0206574 -0.0203042 -0.0199534 -0.0196027 -0.019252 -0.0189035 -0.0185669 -0.0182329 -0.0178988 -0.0175648 -0.0172333 -0.0169129 -0.016595 -0.0162771 -0.0159592 -0.0156438 -0.0153392 -0.0150369 -0.0147346 -0.0144322 -0.0141324 -0.0138431 -0.013556 -0.013269 -0.0129819 -0.0126974 -0.0124231 -0.012151 -0.0118789 -0.0116068 -0.011337 -0.0110773 -0.0108198 -0.0105624 -0.0103049 -0.0100497 -0.00980443 -0.00956127 -0.00931811 -0.00907495 -0.00883399 -0.00860252 -0.00837308 -0.00814364 -0.00791421 -0.00768686 -0.0074685 -0.00725225 -0.007036 -0.00681975 -0.00660558 -0.00640005 -0.00619655 -0.00599305 -0.00578955 -0.00558805 -0.00539482 -0.00520371 -0.00501259 -0.00482148 -0.00463246 -0.00445142 -0.00427248 -0.00409355 -0.00391461 -0.00373772 -0.00356849 -0.00340131 -0.00323412 -0.00306694 -0.00290181 -0.00274375 -0.00258758 -0.0024314 -0.00227522 -0.00212108 -0.00197357 -0.00182758 -0.0016816 -0.00153562 -0.00139141 -0.00125345 -0.00111709 -0.000980732 -0.000844372 -0.000709786 -0.00058111 -0.000454043 -0.000326976 -0.000199908 -7.44861e-05 4.51841e-05 0.000163239 0.000281294 0.000399349 0.000515785 0.000626774 0.000736177 0.00084558 0.000954983 0.00106276 0.0011655 0.00126669 0.00136789 0.00146908 0.00156868 0.00166357 0.00175701 0.00185045 0.00194388 0.0020358 0.00212334 0.00220945 0.00229556 0.00238167 0.00246629 0.0025468 0.00262598 0.00270515 0.00278433 0.0028621 0.00293604 0.00300867 0.0030813 0.00315392 0.00322516 0.00329286 0.00335931 0.00342576 0.00349222 0.00355737 0.00361923 0.00367987 0.0037405 0.00380114 0.0038605 0.00391682 0.003972 0.00402718 0.00408237 0.00413634 0.00418753 0.00423759 0.00428765 0.00433771 0.00438656 0.00443287 0.0044781 0.00452334 0.00456857 0.00461268 0.00465445 0.00469515 0.00473586 0.00477657 0.00481616 0.00485361 0.00489008 0.00492655 0.00496302 0.00499843 0.00503193 0.00506444 0.00509695 0.00512946 0.00516093 0.00519066 0.00521948 0.00524829 0.00527711 0.00530495 0.00533123 0.0053566 0.00538196 0.00540733 0.00543173 0.00545474 0.0054769 0.00549906 0.00552122 0.00554247 0.00556251 0.00558169 0.00560088 0.00562007 0.00563835 0.00565558 0.00567201 0.00568845 0.00570489 0.00572048 0.00573516 0.00574905 0.00576294 0.00577683 0.0057899 0.00580216 0.0058137 0.00582524 0.00583679 0.00584756 0.00585766 0.00586704 0.00587642 0.0058858 0.0058944 0.00590247 0.00590986 0.00591726 0.00592465 0.00593133 0.00593757 0.00594315 0.00594872 0.0059543 0.00595916 0.0059637 0.00596762 0.00597154 0.00597545 0.0059787 0.00598174 0.00598416 0.00598657 0.00598898 0.00599072 0.00599235 0.0059934 0.00599444 0.00599548 0.0059959 0.0059963 0.0059961 0.0059959 0.0059957 0.00599488 0.00599412 0.00599281 0.00599151 0.0059902 0.00598831 0.00598658 0.00598429 0.005982 0.00597971 0.00597684 0.00597419 0.00597102 0.00596785 0.00596468 0.00596097 0.00595754 0.0059536 0.00594965 0.00594571 0.00594122 0.0059371 0.00593249 0.00592788 0.00592327 0.00591815 0.00591346 0.00590829 0.00590311 0.00589794 0.00589225 0.00588706 0.00588142 0.00587577 0.00587013 0.00586399 0.00585843 0.0058524 0.00584637 0.00584033 0.00583382 0.00582793 0.0058216 0.00581527 0.00580894 0.00580216 0.00579604 0.0057895 0.00578295 0.0057764 0.0057694 0.00576313 0.00575644 0.00574975 0.00574306 0.00573594 0.0057296 0.00572284 0.00571608 0.00570933 0.00570214 0.00569579 0.00568904 0.00568229 0.00567554 0.00566837 0.00566209 0.00565541 0.00564873 0.00564204 0.00563495 0.0056288 0.00562226 0.00561572 0.00560917 0.00560223 0.00559627 0.00558993 0.00558358 0.00557724 0.00557051 0.00556481 0.00555872 0.00555263 0.00554655 0.00554007 0.00553468 0.00552891 0.00552313 0.00551736 0.00551121 0.00550618 0.00550077 0.00549536 0.00548994 0.00548416 0.00547952 0.00547451 0.0054695 0.00546448 0.00545911 0.00545491 0.00545032 0.00544573 0.00544115 0.00543618 0.0054324 0.00542823 0.00542406 0.00541989 0.00541536 0.00541196 0.00540815 0.00540434 0.00540053 0.00539632 0.00539312 0.00538948 0.00538583 0.00538219 0.00537813 0.00537472 0.0053708 0.00536688 0.00536297 0.00535857 0.00535366 0.00534793 0.00534221 0.00533648 0.00532997 0.00532119 0.00531198 0.00530277 0.00529356 0.00528386 0.00525773 0.00522608 0.00519443 0.00516277 0.00512624 0.00511475 0.0051174 0.00512005 0.00512271 0.00514832 0.00523192 0.00530796 0.00538732 0.00545029 0.0054959 0.00548887 0.00548504 0.00548121 0.0054774 0.00547587 0.00550274 0.00553043 0.00555811 0.00557779 0.00559875 0.00561268 0.00563153 0.00565041 0.00566929 0.00568363 0.00574651 0.00581153 0.00587654 0.00594155 0.00599806 0.0060895 0.00616561 0.00624172 0.00631783 0.00632298 0.00630835 0.00628898 0.0062696 0.00625023 0.00624035 0.00603951 0.00581795 0.0055964 0.00537485 0.00504749 0.00456751 0.00407363 0.00357976 0.00308589 0.00262181 0.00235205 0.00207476 0.00179746 0.00152017 0.00127284 0.00117425 0.00106923 0.000964212 0.000859195 0.000773556 0.000667648 0.000556183 0.000444718 0.000333252 0.00025527
-0.0319477 -0.0319668 -0.0319859 -0.032005 -0.0320241 -0.0320432 -0.0327441 -0.0336217 -0.0344043 -0.0351668 -0.0362251 -0.0372618 -0.0382522 -0.0392546 -0.040314 -0.041298 -0.0422592 -0.0432252 -0.0441659 -0.0451011 -0.046007 -0.0469051 -0.0478112 -0.0487171 -0.0496223 -0.0505273 -0.051419 -0.0523228 -0.0532315 -0.0541412 -0.0550616 -0.0559667 -0.0568789 -0.0577907 -0.0587002 -0.0596153 -0.0605166 -0.061415 -0.0623146 -0.0632144 -0.0641106 -0.0649916 -0.0658716 -0.0667512 -0.0676289 -0.0685047 -0.0693629 -0.0702186 -0.0710768 -0.0719356 -0.0727921 -0.0736261 -0.0744615 -0.0752964 -0.0761287 -0.0769624 -0.0777697 -0.078575 -0.0793828 -0.080191 -0.0809978 -0.0817734 -0.0825506 -0.0833273 -0.0841017 -0.0848776 -0.0856184 -0.0863585 -0.0871007 -0.0878435 -0.0885858 -0.0892882 -0.0899934 -0.0906981 -0.0914008 -0.0921062 -0.0927675 -0.0934297 -0.0940938 -0.0947584 -0.0954243 -0.0960412 -0.0966622 -0.0972829 -0.0979017 -0.0985244 -0.0990935 -0.0996665 -0.100241 -0.100816 -0.101396 -0.101915 -0.102442 -0.10297 -0.103496 -0.10403 -0.104503 -0.10498 -0.105458 -0.105937 -0.106422 -0.106844 -0.107271 -0.107698 -0.108125 -0.108556 -0.108926 -0.109299 -0.109671 -0.110044 -0.110419 -0.110734 -0.11105 -0.111367 -0.111684 -0.112002 -0.112261 -0.112521 -0.112781 -0.11304 -0.1133 -0.113503 -0.113705 -0.113907 -0.114109 -0.114311 -0.114456 -0.1146 -0.114743 -0.114887 -0.11503 -0.115113 -0.115198 -0.115284 -0.115369 -0.115456 -0.11548 -0.115509 -0.115538 -0.115566 -0.1156 -0.115567 -0.115541 -0.115515 -0.11549 -0.11547 -0.115386 -0.115308 -0.115229 -0.115149 -0.115076 -0.11494 -0.114807 -0.114674 -0.114544 -0.114417 -0.11423 -0.114048 -0.113864 -0.11368 -0.1135 -0.113264 -0.11303 -0.112796 -0.112565 -0.112336 -0.112054 -0.111777 -0.111497 -0.111216 -0.11094 -0.110615 -0.110291 -0.109967 -0.109646 -0.109325 -0.10896 -0.108597 -0.108232 -0.107867 -0.107503 -0.1071 -0.106696 -0.106292 -0.10589 -0.105487 -0.105047 -0.104608 -0.104168 -0.103728 -0.103289 -0.102813 -0.10234 -0.101867 -0.101396 -0.100928 -0.100423 -0.0999241 -0.0994229 -0.0989213 -0.0984262 -0.0978971 -0.0973709 -0.0968452 -0.0963223 -0.0958021 -0.0952524 -0.0947077 -0.0941603 -0.0936124 -0.0930693 -0.0925008 -0.0919337 -0.0913672 -0.0908031 -0.09024 -0.0896554 -0.0890748 -0.088492 -0.0879087 -0.0873292 -0.0867314 -0.086135 -0.0855391 -0.0849453 -0.0843527 -0.083745 -0.0831411 -0.0825352 -0.0819287 -0.081326 -0.0807111 -0.0800976 -0.0794845 -0.0788734 -0.0782632 -0.0776441 -0.0770284 -0.0764108 -0.0757929 -0.0751782 -0.0745572 -0.0739373 -0.0733179 -0.0727002 -0.0720835 -0.0714631 -0.0708459 -0.0702271 -0.0696079 -0.0689917 -0.0683742 -0.0677579 -0.0671419 -0.0665273 -0.0659138 -0.0653011 -0.0646913 -0.0640801 -0.0634686 -0.0628597 -0.0622536 -0.0616488 -0.0610442 -0.0604408 -0.0598384 -0.0592407 -0.0586456 -0.0580493 -0.0574528 -0.0568586 -0.0562709 -0.0556843 -0.0550979 -0.0545125 -0.0539281 -0.0533517 -0.0527775 -0.0522024 -0.0516271 -0.0510539 -0.05049 -0.0499272 -0.0493646 -0.0488027 -0.0482418 -0.0476915 -0.0471431 -0.046594 -0.0460448 -0.0454973 -0.0449615 -0.0444267 -0.0438921 -0.043358 -0.0428249 -0.0423043 -0.0417854 -0.0412659 -0.0407464 -0.0402284 -0.0397237 -0.03922 -0.0387164 -0.0382132 -0.0377109 -0.0372226 -0.0367356 -0.0362484 -0.0357611 -0.035275 -0.0348034 -0.0343329 -0.0338623 -0.033392 -0.0329225 -0.032468 -0.0320145 -0.031561 -0.0311074 -0.0306549 -0.0302174 -0.029781 -0.0293446 -0.0289082 -0.0284727 -0.0280525 -0.0276333 -0.027214 -0.0267948 -0.0263765 -0.0259734 -0.0255714 -0.0251693 -0.0247671 -0.0243658 -0.0239798 -0.0235948 -0.0232098 -0.0228248 -0.0224409 -0.0220718 -0.0217042 -0.0213365 -0.0209687 -0.0206021 -0.0202501 -0.0198995 -0.0195489 -0.0191984 -0.0188491 -0.0185137 -0.0181798 -0.0178458 -0.0175119 -0.0171792 -0.0168606 -0.0165429 -0.0162251 -0.0159074 -0.0155907 -0.0152882 -0.0149862 -0.0146842 -0.014382 -0.0140803 -0.0137938 -0.0135068 -0.0132201 -0.0129335 -0.0126466 -0.0123752 -0.0121036 -0.0118319 -0.0115598 -0.0112876 -0.0110306 -0.0107731 -0.0105161 -0.0102591 -0.0100016 -0.00975882 -0.00951612 -0.00927334 -0.00903023 -0.00878731 -0.00855833 -0.00832898 -0.00810003 -0.00787117 -0.00764183 -0.00742614 -0.00721062 -0.00699499 -0.00677886 -0.00656299 -0.00635989 -0.0061565 -0.00595364 -0.00575088 -0.00554784 -0.00535686 -0.00516649 -0.004976 -0.00478497 -0.00459448 -0.00441533 -0.00423645 -0.00405797 -0.00387958 -0.00370156 -0.00353355 -0.00336661 -0.00319962 -0.00303248 -0.00286614 -0.00270952 -0.00255341 -0.00239741 -0.00224142 -0.00208609 -0.00194039 -0.00179481 -0.00164918 -0.00150331 -0.00135774 -0.00122233 -0.0010861 -0.000950249 -0.000814488 -0.000677965 -0.000551998 -0.000425596 -0.000299092 -0.000172136 -4.4893e-05 7.23803e-05 0.00019035 0.00030788 0.000425311 0.000543481 0.000652301 0.000761156 0.000870098 0.000979433 0.00108878 0.0011895 0.00129063 0.0013914 0.0014921 0.00159317 0.00168617 0.00177914 0.00187218 0.00196555 0.00205885 0.00214451 0.00223055 0.00231627 0.00240192 0.00248789 0.00256664 0.00264535 0.00272413 0.00280324 0.00288228 0.00295445 0.00302701 0.00309925 0.00317141 0.00324389 0.00330996 0.00337597 0.00344205 0.00350845 0.00357477 0.00363501 0.00369559 0.0037559 0.00381614 0.00387665 0.00393145 0.00398628 0.00404117 0.00409629 0.00415143 0.00420105 0.00425105 0.00430081 0.00435052 0.00440054 0.00444533 0.00449021 0.00453514 0.00458032 0.00462557 0.00466579 0.00470644 0.00474685 0.00478721 0.00482793 0.00486393 0.00490006 0.00493625 0.00497267 0.0050092 0.00504121 0.00507367 0.00510591 0.0051381 0.00517067 0.005199 0.00522751 0.00525606 0.00528483 0.00531376 0.00533861 0.00536394 0.00538906 0.00541414 0.00543962 0.00546129 0.00548317 0.0055051 0.00552722 0.00554954 0.0055682 0.00558735 0.00560631 0.00562523 0.00564457 0.0056605 0.00567668 0.0056929 0.0057093 0.00572593 0.00573928 0.00575313 0.00576682 0.00578046 0.00579455 0.00580557 0.00581688 0.00582823 0.00583973 0.00585151 0.00586034 0.00586968 0.00587887 0.00588803 0.00589764 0.00590451 0.00591169 0.0059189 0.00592626 0.00593392 0.00593894 0.00594448 0.00594989 0.00595526 0.00596111 0.00596449 0.00596822 0.00597198 0.00597587 0.00598009 0.00598193 0.00598432 0.00598658 0.00598881 0.00599154 0.00599203 0.0059929 0.0059938 0.00599482 0.0059962 0.00599542 0.0059952 0.00599486 0.0059945 0.00599465 0.00599277 0.00599131 0.00598988 0.00598855 0.00598764 0.00598477 0.00598246 0.00598004 0.0059776 0.00597569 0.00597196 0.00596864 0.00596535 0.00596216 0.00595938 0.00595487 0.0059509 0.00594685 0.00594277 0.00593921 0.00593404 0.00592931 0.0059246 0.00591997 0.00591578 0.00591002 0.00590483 0.00589956 0.00589427 0.00588951 0.0058833 0.00587755 0.00587181 0.00586615 0.00586094 0.00585433 0.00584828 0.00584217 0.00583604 0.00583044 0.00582354 0.00581712 0.00581071 0.00580437 0.0057985 0.00579136 0.0057848 0.00577818 0.00577154 0.00576546 0.00575819 0.00575142 0.00574466 0.00573796 0.00573176 0.00572441 0.00571764 0.00571082 0.00570399 0.00569772 0.00569039 0.00568357 0.00567676 0.00567 0.00566376 0.00565648 0.00564979 0.00564305 0.00563631 0.00563014 0.00562301 0.00561642 0.00560983 0.00560327 0.00559726 0.00559032 0.00558396 0.00557758 0.00557119 0.00556538 0.00555871 0.00555258 0.00554647 0.00554037 0.00553484 0.00552846 0.00552269 0.00551689 0.00551109 0.00550588 0.00549988 0.00549445 0.00548903 0.00548361 0.0054788 0.00547318 0.00546816 0.00546316 0.00545815 0.00545375 0.00544858 0.00544403 0.00543948 0.00543489 0.00543096 0.00542619 0.00542203 0.00541795 0.00541388 0.00541042 0.00540605 0.00540246 0.00539883 0.00539503 0.00539205 0.00538789 0.0053843 0.00538106 0.00537791 0.00537535 0.00537102 0.00536821 0.00536521 0.00536143 0.00535915 0.00535382 0.00534857 0.00534557 0.00534311 0.00534067 0.00533163 0.00532989 0.00532697 0.00531902 0.00531798 0.00530366 0.00527909 0.00527458 0.00527479 0.00526406 0.00522115 0.00523272 0.00524309 0.00524836 0.00531647 0.00540992 0.00547348 0.00553705 0.00557503 0.00552872 0.00550949 0.00550245 0.00549541 0.00548791 0.00549191 0.00550945 0.00552761 0.00554578 0.00555748 0.00556875 0.0055698 0.00557085 0.0055719 0.00557283 0.00557353 0.00559836 0.00562731 0.00565635 0.00568539 0.00565877 0.00569693 0.00575957 0.00582259 0.00588561 0.0059656 0.00617988 0.0062689 0.00635136 0.00642747 0.00632056 0.00635642 0.00633704 0.0063206 0.00631114 0.00625577 0.00620924 0.00598768 0.00576613 0.005532 0.00503842 0.0046988 0.00420493 0.00371106 0.00321451 0.00259572 0.0024141 0.00213681 0.00185951 0.00158222 0.00124243 0.00122334 0.00111832 0.0010133 0.000908288 0.000751124 0.000715136 0.000603672 0.000492209 0.000380745 0.00020675