# vtk DataFile Version 2.0
sampleSurface
ASCII
DATASET POLYDATA
POINTS 8354 float
1.75549e-13 0 0 1.75549e-13 0 0.01875 0.0625 0 0 -0.0625 0
0 0.0625 -5.11491e-18 0.01875 -0.0625 5.48644e-18 0.01875 1.59532e-13 -2.52877e-18 0.0806582
0.0625 0 0.0806582 -0.0625 -1.26218e-29 0.0806582 0.125 0 0 -0.125
-1.26218e-29 0 0.125 0 0.01875 -0.125 -1.26218e-29 0.01875 1.50652e-13 0
0.142566 0.125 5.1813e-18 0.0806582 -0.125 5.65082e-18 0.0806602 0.0625 1.64721e-18 0.142566
-0.0625 2.03723e-18 0.142566 0.1875 1.26218e-29 0 -0.1875 0 0 0.1875
-4.46051e-18 0.01875 -0.1875 7.89923e-20 0.01875 0.125 1.26218e-29 0.142566 -0.125 0
0.14257 0.1875 -1.26218e-29 0.0806582 -0.1875 0 0.0806602 1.48836e-13 0 0.204475
0.0625 0 0.204475 -0.0625 0 0.204475 0.1875 -4.98715e-18 0.142566 -0.1875
-1.7597e-18 0.14257 0.125 0 0.204475 -0.125 -6.71663e-18 0.204481 0.25 1.26218e-29
0 -0.25 -1.26218e-29 0 0.25 1.26218e-29 0.01875 -0.25 -1.26218e-29 0.01875
0.25 1.26218e-29 0.0806582 -0.25 4.00211e-18 0.0806627 1.54191e-13 0 0.266383 0.0625
4.23976e-18 0.266383 -0.0625 0 0.266383 0.1875 0 0.204475 -0.1875 0
0.204481 0.25 0 0.142566 -0.25 0 0.142575 0.125 0 0.266383
-0.125 1.26218e-29 0.266391 0.3125 0 0 -0.3125 -1.26218e-29 0 0.3125
3.86026e-18 0.01875 -0.3125 4.27294e-18 0.01875 0.3125 0 0.0806582 -0.3125 -1.26218e-29
0.080663 0.25 1.03525e-18 0.204475 -0.25 1.26218e-29 0.204488 0.1875 0 0.266383
-0.1875 1.37701e-18 0.266391 1.66949e-13 4.90093e-18 0.328291 -0.0625 -1.26218e-29 0.328291 0.0625
0 0.328291 0.3125 0 0.142566 -0.3125 4.27624e-18 0.142576 0.125 6.22153e-19
0.328291 -0.125 -2.07532e-18 0.328301 0.25 0 0.266383 -0.25 0 0.266401
0.3125 0 0.204475 -0.3125 1.26218e-29 0.204489 0.375 0 0 -0.375
-2.52435e-29 0 0.375 0 0.01875 -0.375 -2.52435e-29 0.01875 0.1875 0
0.328291 -0.1875 0 0.328301 0.375 6.81186e-18 0.0806582 -0.375 6.54521e-18 0.0806641
1.87544e-13 1.26218e-29 0.390199 0.0625 2.51913e-18 0.390199 -0.0625 9.79971e-20 0.390199 0.375
0 0.142566 -0.375 0 0.142578 0.125 1.26218e-29 0.390199 -0.125 0
0.390211 0.3125 3.38175e-18 0.266383 -0.3125 -1.26218e-29 0.266402 0.25 0 0.328291
-0.25 2.36409e-18 0.328314 0.375 -2.14407e-18 0.204475 -0.375 1.89573e-18 0.204492 0.1875
0 0.390199 -0.1875 -3.51018e-18 0.390211 -0.4375 -2.52435e-29 0 0.4375 4.33579e-18
0 -0.4375 5.39157e-18 0.01875 0.4375 4.33579e-18 0.01875 0.4375 0 0.0806588
-0.4375 0 0.0806641 2.16727e-13 0 0.452107 0.3125 0 0.328291 -0.3125
0 0.328315 0.0625 1.26218e-29 0.452107 -0.0625 0 0.452107 0.375 1.26218e-29
0.266383 -0.375 0 0.266406 0.4375 0 0.142568 -0.4375 -2.52658e-18 0.142578
0.25 0 0.390199 -0.25 0 0.390226 0.125 -3.39343e-18 0.452107 -0.125
-8.79568e-19 0.452121 0.4375 1.26218e-29 0.204477 -0.4375 -2.52435e-29 0.204492 0.1875 0
0.452107 -0.1875 0 0.452121 0.375 0 0.328291 -0.375 2.48192e-18 0.32832
0.3125 -4.01722e-18 0.390199 -0.3125 -2.95176e-18 0.390228 -0.5 0 0 0.5
-1.26218e-29 0 -0.5 0 0.01875 0.5 -1.26218e-29 0.01875 0.5 1.26218e-29
0.0806588 -0.5 0 0.0806641 0.4375 0 0.266385 -0.4375 -4.42667e-18 0.266406
2.55734e-13 0 0.514016 0.25 2.76043e-18 0.452107 -0.25 0 0.452139 0.0625
4.63172e-18 0.514016 -0.0625 0 0.514016 0.5 0 0.142568 -0.5 5.04871e-29
0.142578 0.125 0 0.514016 -0.125 0 0.514031 0.5 -4.53491e-18 0.204477
-0.5 -3.71825e-18 0.204492 0.375 -1.26218e-29 0.390199 -0.375 0 0.390234 0.4375
0 0.328294 -0.4375 -2.52435e-29 0.32832 0.1875 -2.52435e-29 0.514016 -0.1875 3.73614e-18
0.514031 0.3125 1.26218e-29 0.452107 -0.3125 0 0.452142 -0.5625 1.00974e-28 0
0.5625 1.26218e-29 0 -0.5625 -3.62689e-18 0.01875 0.5625 -4.16584e-18 0.01875 0.5
1.26218e-29 0.266385 -0.5 0 0.266406 0.5625 1.26218e-29 0.0806588 -0.5625 1.00974e-28
0.0806641 0.25 0 0.514016 -0.25 2.52435e-29 0.514052 3.06549e-13 0 0.575924
-0.0625 0 0.575924 0.0625 0 0.575924 0.5625 -3.21432e-18 0.142568 -0.5625
-4.40015e-18 0.142578 0.4375 3.7915e-18 0.390203 -0.4375 1.7368e-18 0.390234 0.375 7.24633e-19
0.452107 -0.375 -1.3287e-18 0.452148 0.125 -2.45194e-18 0.575924 -0.125 -6.0933e-18 0.575942
0.5 0 0.328294 -0.5 0 0.32832 0.5625 0 0.204477 -0.5625
0 0.204492 0.3125 6.76102e-18 0.514016 -0.3125 0 0.514055 0.1875 0
0.575924 -0.1875 0 0.575942 0.5625 -1.3001e-18 0.266385 -0.5625 0 0.266406
-0.625 0 0 0.625 1.26218e-29 0 -0.625 0 0.01875 0.625
1.26218e-29 0.01875 0.25 0 0.575924 -0.25 -2.90766e-18 0.575945 0.4375 -1.26218e-29
0.452112 -0.4375 0 0.452148 0.625 -4.21414e-18 0.0806588 -0.625 4.80757e-18 0.0806641
0.5 -1.26218e-29 0.390203 -0.5 0 0.390234 0.375 -1.26218e-29 0.514016 -0.375
2.52435e-29 0.514063 3.72107e-13 0 0.637832 -0.0625 4.88286e-18 0.637832 0.0625 6.77044e-18
0.637832 0.625 -6.31089e-30 0.142568 -0.625 0 0.142578 0.125 0 0.637832
-0.125 0 0.637852 0.5625 0 0.328294 -0.5625 0 0.32832 0.3125
0 0.575924 -0.3125 -2.52435e-29 0.575968 0.625 3.12974e-18 0.204477 -0.625 4.59612e-18
0.204492 0.1875 2.19058e-18 0.637832 -0.1875 -6.60238e-18 0.637852 0.5 4.92156e-18 0.452112
-0.5 -1.68639e-18 0.452148 0.4375 -1.26218e-29 0.514021 -0.4375 -5.65702e-18 0.514063 0.625
0 0.266385 -0.625 -2.01948e-28 0.266406 0.5625 9.44275e-19 0.390203 -0.5625 -6.46756e-18
0.390234 0.25 0 0.637832 -0.25 0 0.637856 0.375 -6.73569e-18 0.575924
-0.375 1.11066e-18 0.575977 0.6875 0 0 -0.6875 0 0 -0.6875
1.40717e-18 0.01875 0.6875 -3.97897e-18 0.01875 0.6875 0 0.0806588 -0.6875 0
0.0806641 4.56845e-13 3.87603e-18 0.69974 0.6875 1.27263e-18 0.142568 -0.6875 0 0.142578
-0.0625 2.52435e-29 0.69974 0.0625 2.52435e-29 0.69974 0.625 6.592e-18 0.328294 -0.625
0 0.32832 0.3125 -1.93524e-18 0.637832 -0.3125 4.04014e-18 0.637881 0.125 -4.70106e-19
0.69974 -0.125 3.12226e-18 0.699762 0.5 0 0.514021 -0.5 0 0.514063
0.6875 6.31089e-30 0.204477 -0.6875 -4.03897e-28 0.204492 0.5625 0 0.452112 -0.5625
-1.00974e-28 0.452148 0.4375 0 0.57593 -0.4375 0 0.575977 0.1875 -2.52435e-29
0.69974 -0.1875 2.52435e-29 0.699762 0.625 1.26218e-29 0.390203 -0.625 2.01948e-28 0.390234
0.6875 0 0.266385 -0.6875 -6.75978e-18 0.266406 0.375 0 0.637832 -0.375
0 0.637891 0.25 4.98213e-18 0.69974 -0.25 0 0.699767 0.75 1.26218e-29
0 -0.75 8.07794e-28 0 0.75 1.26218e-29 0.01875 -0.75 8.07794e-28 0.01875
0.75 -2.83834e-18 0.080661 -0.75 0 0.0806644 5.67701e-13 0 0.761648 0.6875
0 0.328294 -0.6875 0 0.32832 0.5625 -5.39072e-18 0.514021 -0.5625 0
0.514063 0.5 0 0.57593 -0.5 0 0.575977 0.75 0 0.142572
-0.75 8.07794e-28 0.142579 -0.0625 4.99955e-18 0.761648 0.0625 -5.04871e-29 0.761648 0.3125
2.52435e-29 0.69974 -0.3125 0 0.699795 0.625 -1.02629e-18 0.452112 -0.625 -1.62107e-19
0.452148 0.125 0 0.761648 -0.125 0 0.761672 0.4375 0 0.637838
-0.4375 4.29373e-19 0.637891 0.75 -6.31089e-30 0.204483 -0.75 -1.94537e-18 0.204493 0.1875
5.59539e-18 0.761648 -0.1875 0 0.761672 0.6875 -3.12847e-21 0.390203 -0.6875 1.7397e-18
0.390234 0.375 -7.78862e-19 0.69974 -0.375 9.53408e-20 0.699805 0.75 6.31089e-30 0.266394
-0.75 8.07794e-28 0.266408 0.25 0 0.761648 -0.25 0 0.761678 0.5625
0 0.57593 -0.5625 0 0.575977 0.625 1.26218e-29 0.514021 -0.625 0
0.514063 0.5 2.52435e-29 0.637838 -0.5 1.00974e-28 0.637891 -0.8125 0 0
0.8125 6.31089e-30 0 -0.8125 9.96706e-19 0.01875 0.8125 -5.64787e-18 0.01875 0.8125
0 0.0806623 -0.8125 -1.61559e-27 0.0806652 0.75 6.84495e-18 0.328305 -0.75 -8.07794e-28
0.328322 0.6875 -1.26218e-29 0.452112 -0.6875 0 0.452148 0.3125 0 0.761648
-0.3125 1.35227e-18 0.761708 7.16809e-13 0 0.823557 0.8125 2.44843e-18 0.142575 -0.8125
-5.09802e-18 0.142581 0.4375 0 0.699747 -0.4375 -5.04871e-29 0.699805 -0.0625 0
0.823557 0.0625 5.04871e-29 0.823557 0.125 3.3729e-18 0.823557 -0.125 -3.3446e-19 0.823582
0.8125 -6.31089e-30 0.204487 -0.8125 -1.61559e-27 0.204496 0.1875 0 0.823557 -0.1875
0 0.823582 0.75 0 0.390216 -0.75 8.07794e-28 0.390236 0.375 0
0.761648 -0.375 0 0.761719 0.625 2.89935e-18 0.57593 -0.625 2.69604e-18 0.575977
0.5625 3.66498e-18 0.637838 -0.5625 -1.66883e-18 0.637891 0.8125 -3.92683e-18 0.266399 -0.8125
0 0.266411 0.6875 1.26218e-29 0.514021 -0.6875 6.04692e-18 0.514063 0.5 3.95879e-18
0.699747 -0.5 6.89573e-18 0.699805 0.25 0 0.823557 -0.25 -5.33342e-18 0.823589
-0.875 0 0 0.875 6.31089e-30 0 -0.875 0 0.01875 0.875
6.31089e-30 0.01875 0.75 0 0.452127 -0.75 2.01392e-18 0.452151 0.8125 0
0.328312 -0.8125 -1.61559e-27 0.328327 0.4375 -1.09521e-18 0.761656 -0.4375 0 0.761719
0.875 -1.5406e-18 0.0806623 -0.875 -3.26522e-18 0.0806667 0.3125 5.04871e-29 0.823557 -0.3125
0 0.823622 9.26509e-13 5.04871e-29 0.885465 0.875 0 0.142575 -0.875 -3.23117e-27
0.142584 -0.0625 4.92932e-18 0.885465 0.0625 -6.03858e-18 0.885465 0.625 0 0.637838
-0.625 2.01948e-28 0.637891 0.125 -5.04871e-29 0.885465 -0.125 0 0.885492 0.6875
0 0.57593 -0.6875 0 0.575977 0.5625 -2.52435e-29 0.699747 -0.5625 0
0.699805 0.875 -6.36353e-18 0.204487 -0.875 0 0.204501 0.8125 2.30477e-18 0.390224
-0.8125 0 0.390243 0.375 3.82565e-19 0.823557 -0.375 1.65848e-18 0.823633 0.1875
-3.72016e-18 0.885465 -0.1875 7.34014e-19 0.885492 0.75 1.26218e-29 0.514038 -0.75 8.07794e-28
0.514066 0.5 0 0.761656 -0.5 0 0.761719 0.875 6.31089e-30 0.266399
-0.875 3.23117e-27 0.266418 0.25 -5.04871e-29 0.885465 -0.25 -5.04871e-29 0.8855 0.8125
0 0.452136 -0.8125 0 0.452159 0.4375 -5.04871e-29 0.823565 -0.4375 0
0.823633 0.875 -5.88015e-18 0.328312 -0.875 -6.83729e-18 0.328335 -0.9375 0 0
0.9375 -6.31089e-30 0 -0.9375 2.78604e-18 0.01875 0.9375 6.36076e-18 0.01875 0.6875
9.03089e-19 0.637838 -0.6875 6.40813e-18 0.637891 0.625 -2.58188e-18 0.699747 -0.625 2.61625e-18
0.699805 0.3125 6.49955e-19 0.885465 -0.3125 -4.36459e-18 0.885535 0.9375 -6.31089e-30 0.0806623
-0.9375 0 0.0806687 0.75 3.51659e-18 0.575949 -0.75 8.07794e-28 0.57598 0.5625
-2.52435e-29 0.761656 -0.5625 -1.43321e-18 0.761719 1.24031e-12 6.80881e-18 0.947373 0.9375 -6.07622e-18
0.142575 -0.9375 6.30495e-18 0.142588 -0.0625 0 0.947373 0.0625 0 0.947373
0.125 4.7731e-18 0.947373 -0.125 6.54495e-19 0.947403 0.875 0 0.390224 -0.875
0 0.390253 0.9375 0 0.204487 -0.9375 6.46235e-27 0.204507 0.8125 4.92265e-18
0.514049 -0.8125 0 0.514075 0.375 5.04871e-29 0.885465 -0.375 0 0.885547
0.5 0 0.823565 -0.5 0 0.823633 0.1875 0 0.947373 -0.1875
[...]
POINT_DATA 8354
FIELD attributes 1
U 3 8354 float
30 0 0 30.006 -1.64912e-06 -7.74476e-05 30 0 0 30 0
0 30.0061 -1.67904e-06 -7.28119e-05 30.0059 -1.61929e-06 -8.18942e-05 30.0063 -1.73167e-06 -0.000199601
30.0064 -1.76227e-06 -0.000186856 30.0062 -1.70126e-06 -0.000211617 30 0 0 30
0 0 30.0062 -1.70882e-06 -6.80055e-05 30.0058 -1.58942e-06 -8.61145e-05 30.0064 -1.76373e-06
-0.000354882 30.0065 -1.79294e-06 -0.000173487 30.0061 -1.6708e-06 -0.000222881 30.0065 -1.79459e-06 -0.000332691
30.0063 -1.73308e-06 -0.000375881 30 0 0 30 0 0 30.0062
-1.73827e-06 -6.30488e-05 30.0057 -1.55958e-06 -9.00846e-05 30.0065 -1.82552e-06 -0.000309481 30.0061 -1.70238e-06
-0.000395607 30.0065 -1.8233e-06 -0.000159724 30.006 -1.64035e-06 -0.000233367 30.0064 -1.78259e-06 -0.000521487
30.0065 -1.81363e-06 -0.000489819 30.0063 -1.75175e-06 -0.000551515 30.0066 -1.8562e-06 -0.000285523 30.006
-1.67169e-06 -0.000413976 30.0066 -1.84467e-06 -0.000456736 30.0062 -1.72086e-06 -0.000579774 30 0
0 30 0 0 30.0063 -1.76766e-06 -5.80097e-05 30.0055 -1.52982e-06 -9.37915e-05
30.0066 -1.85354e-06 -0.000145736 30.0058 -1.61009e-06 -0.000243028 30.0065 -1.78814e-06 -0.000687102 30.0066
-1.81956e-06 -0.000645702 30.0063 -1.75691e-06 -0.000726359 30.0067 -1.87547e-06 -0.000422436 30.0061 -1.69004e-06
-0.000606095 30.0067 -1.88677e-06 -0.000261012 30.0059 -1.64118e-06 -0.000430912 30.0066 -1.85093e-06 -0.00060241
30.0062 -1.72565e-06 -0.000763303 30 0 0 30 0 0 30.0064
-1.79711e-06 -5.29023e-05 30.0054 -1.49992e-06 -9.72227e-05 30.0067 -1.88374e-06 -0.000131502 30.0057 -1.57969e-06
-0.000251847 30.0068 -1.90615e-06 -0.000387169 30.006 -1.65944e-06 -0.000630383 30.0067 -1.88202e-06 -0.000557466
30.0061 -1.69447e-06 -0.00079771 30.0065 -1.7896e-06 -0.000862994 30.0064 -1.75803e-06 -0.000911766 30.0066
-1.82135e-06 -0.000811552 30.0068 -1.91723e-06 -0.000235986 30.0058 -1.61057e-06 -0.000446359 30.0067 -1.85308e-06
-0.000757718 30.0062 -1.72644e-06 -0.000957633 30.0068 -1.91305e-06 -0.000511167 30.006 -1.66356e-06 -0.00082946
30.0068 -1.93679e-06 -0.000351075 30.0058 -1.62877e-06 -0.000652527 30 0 0 30
0 0 30.0064 -1.82636e-06 -4.76892e-05 30.0053 -1.46994e-06 -0.000100366 30.0067 -1.88454e-06
-0.000701818 30.0061 -1.6949e-06 -0.00100034 30.0067 -1.91375e-06 -0.000116923 30.0056 -1.54919e-06 -0.000259797
30.0065 -1.79654e-06 -0.00103946 30.0066 -1.82869e-06 -0.000977606 30.0064 -1.76458e-06 -0.00109808 30.0068
-1.94744e-06 -0.000210469 30.0056 -1.57989e-06 -0.000460264 30.0067 -1.86082e-06 -0.000912858 30.0063 -1.73262e-06
-0.00115319 30.0069 -1.94403e-06 -0.000463759 30.0058 -1.63255e-06 -0.000858408 30.0068 -1.91592e-06 -0.000644176
30.006 -1.66359e-06 -0.00103972 30.0069 -1.96712e-06 -0.000314403 30.0057 -1.59795e-06 -0.000672447 30.0068
-1.8927e-06 -0.000845599 30.0061 -1.70067e-06 -0.00120448 30 0 0 30 0
0 30.0052 -1.44002e-06 -0.000103202 30.0064 -1.85544e-06 -4.24042e-05 30.0068 -1.94349e-06 -0.000102165
30.0054 -1.51884e-06 -0.000266863 30.0066 -1.80938e-06 -0.00122812 30.0069 -1.94722e-06 -0.000585168 30.0058
-1.63222e-06 -0.00107563 30.0067 -1.84217e-06 -0.00115527 30.0065 -1.77676e-06 -0.00129713 30.0069 -1.97467e-06
-0.000415559 30.0057 -1.60141e-06 -0.000884465 30.0069 -1.97743e-06 -0.000184686 30.0055 -1.54937e-06 -0.00047258
30.0069 -1.92448e-06 -0.000776226 30.006 -1.66893e-06 -0.00125175 30.0068 -1.87488e-06 -0.00107897 30.0064
-1.74417e-06 -0.00136196 30.0069 -1.99732e-06 -0.000277274 30.0055 -1.5673e-06 -0.000690044 30.0069 -1.90731e-06
-0.000999674 30.0062 -1.71161e-06 -0.00142225 30.0069 -1.97821e-06 -0.000525137 30.0057 -1.60074e-06 -0.00110794
30.0069 -1.95615e-06 -0.000705181 30.0059 -1.63715e-06 -0.00129482 30 0 0 30
0 0 30.005 -1.41021e-06 -0.000105708 30.0065 -1.88446e-06 -3.70118e-05 30.0068 -1.97326e-06
-8.72166e-05 30.0053 -1.48863e-06 -0.000273018 30.007 -2.00513e-06 -0.000366811 30.0056 -1.57038e-06 -0.000907528
30.0068 -1.82799e-06 -0.00141476 30.007 -1.93963e-06 -0.000917862 30.0061 -1.67926e-06 -0.00147775 30.0069
-1.86136e-06 -0.00133045 30.0066 -1.79474e-06 -0.00149459 30.0069 -2.00733e-06 -0.000158635 30.0053 -1.51887e-06
-0.000483253 30.007 -1.89456e-06 -0.0012421 30.0065 -1.76156e-06 -0.00156954 30.007 -2.02732e-06 -0.000239979
30.0054 -1.53681e-06 -0.000705237 30.007 -1.98751e-06 -0.000632906 30.0057 -1.60529e-06 -0.00133353 30.007
-2.00901e-06 -0.00046452 30.0055 -1.5694e-06 -0.00113657 30.0071 -1.92747e-06 -0.00115026 30.0064 -1.72844e-06
-0.0016392 30.0071 -1.97185e-06 -0.000834053 30.006 -1.64685e-06 -0.00152826 30 0 0
30 0 0 30.0049 -1.38018e-06 -0.000107884 30.0065 -1.91325e-06 -3.15952e-05 30.007
-2.0355e-06 -0.000317991 30.0054 -1.53971e-06 -0.00092755 30.0068 -2.00289e-06 -7.27064e-05 30.0051 -1.45823e-06
-0.000278307 30.0071 -1.96027e-06 -0.00105547 30.0062 -1.69553e-06 -0.00170332 30.0069 -1.84632e-06 -0.00160405
30.0067 -1.81251e-06 -0.00169483 30.007 -1.88022e-06 -0.00150804 30.0069 -2.03709e-06 -0.000133109 30.0052
-1.48822e-06 -0.000492261 30.007 -2.01873e-06 -0.000559893 30.0056 -1.5736e-06 -0.00136776 30.0071 -2.00373e-06
-0.000748782 30.0058 -1.61434e-06 -0.00157357 30.0071 -1.9139e-06 -0.00140734 30.0066 -1.77882e-06 -0.00177994
30.007 -2.03978e-06 -0.00040369 30.0054 -1.53831e-06 -0.0011615 30.007 -2.05704e-06 -0.000203102 30.0052
-1.50622e-06 -0.000717916 30.0072 -1.99296e-06 -0.000958332 30.0061 -1.66256e-06 -0.00176163 30.0072 -1.94733e-06
-0.00130255 30.0065 -1.74516e-06 -0.00185891 30.007 -2.06545e-06 -0.000269674 30.0053 -1.50897e-06 -0.0009445
30 0 0 30 0 0 30.0047 -1.35005e-06 -0.000109754 30.0065
-1.94167e-06 -2.6407e-05 30.0073 -1.98063e-06 -0.00119433 30.0063 -1.71169e-06 -0.00193139 30.0072 -2.03546e-06
-0.000662618 30.0056 -1.58199e-06 -0.00161353 30.0068 -2.03207e-06 -5.89369e-05 30.005 -1.42779e-06 -0.000282889
30.0071 -2.04991e-06 -0.000486608 30.0054 -1.54207e-06 -0.00139747 30.0073 -2.02532e-06 -0.000859486 30.0059
-1.62949e-06 -0.00181395 30.0069 -1.86203e-06 -0.00179643 30.0068 -1.82747e-06 -0.00189879 30.0071 -1.89667e-06
-0.00168804 30.0069 -2.06645e-06 -0.000108518 30.005 -1.4577e-06 -0.000499662 30.0072 -1.93108e-06 -0.00157425
30.0067 -1.79301e-06 -0.00199466 30.007 -2.07023e-06 -0.00034314 30.0052 -1.50712e-06 -0.0011828 30.0073
-2.01378e-06 -0.00108336 30.0062 -1.6782e-06 -0.00199721 30.007 -2.0867e-06 -0.0001666 30.0051 -1.47559e-06
-0.000727965 30.0073 -1.96525e-06 -0.00145575 30.0065 -1.75857e-06 -0.00208346 30.0072 -2.06717e-06 -0.000576113
30.0055 -1.54992e-06 -0.00164804 30.0073 -2.05754e-06 -0.000759584 30.0058 -1.59654e-06 -0.00186014 30.007
-2.09525e-06 -0.00022148 30.0051 -1.47804e-06 -0.000958402 30.0071 -2.08077e-06 -0.000413568 30.0052 -1.51041e-06
-0.00142262 30.0074 -1.99926e-06 -0.00133329 30.0064 -1.72431e-06 -0.00216481 30.0074 -2.04662e-06 -0.000970384
30.006 -1.64463e-06 -0.00205608 30 0 0 30 0 0 30.0046
-1.32023e-06 -0.000111246 30.0065 -1.96978e-06 -2.14505e-05 30.0068 -2.06119e-06 -4.55138e-05 30.0048 -1.39771e-06
-0.0002869 30.0071 -1.88001e-06 -0.0020035 30.0069 -2.09554e-06 -8.43779e-05 30.0049 -1.4275e-06 -0.000505503
30.0069 -1.84454e-06 -0.00211844 30.0072 -1.9155e-06 -0.00188168 30.0071 -2.10033e-06 -0.000283001 30.0051
-1.47586e-06 -0.00120064 30.0074 -2.0331e-06 -0.00120767 30.0062 -1.69005e-06 -0.00223853 30.0073 -1.95075e-06
-0.00175368 30.0068 -1.80917e-06 -0.00222594 30.0074 -2.08973e-06 -0.000659271 30.0056 -1.564e-06 -0.00190015
30.007 -2.11585e-06 -0.000130751 30.0049 -1.44532e-06 -0.000735172 30.0072 -2.09855e-06 -0.000489837 30.0053
-1.51782e-06 -0.00167699 30.0074 -2.07935e-06 -0.000856161 30.0058 -1.61121e-06 -0.00210788 30.0074 -1.98572e-06
-0.00162029 30.0066 -1.77385e-06 -0.00232537 30.0071 -2.11127e-06 -0.000341105 30.0051 -1.47876e-06 -0.00144321
30.007 -2.12478e-06 -0.000173982 30.0049 -1.44752e-06 -0.000969233 30.0075 -2.06662e-06 -0.00107973 30.006
-1.65572e-06 -0.00230427 30.0075 -2.02055e-06 -0.00148236 30.0064 -1.73873e-06 -0.00241631 30 0
0 30 0 0 30.0065 -1.99812e-06 -1.66947e-05 30.0044 -1.2904e-06 -0.000112096
30.0068 -2.09043e-06 -3.22046e-05 30.0047 -1.36783e-06 -0.000290169 30.0072 -1.90119e-06 -0.0022194 30.0071
-2.13014e-06 -0.000223754 30.0049 -1.44496e-06 -0.00121524 30.0074 -2.12156e-06 -0.000559214 30.0054 -1.53152e-06
-0.00193397 30.0075 -2.11204e-06 -0.000741437 30.0057 -1.57816e-06 -0.00215262 30.0069 -2.1247e-06 -6.02321e-05
30.0047 -1.39753e-06 -0.000509591 30.0071 -1.86477e-06 -0.00234759 30.0073 -1.9376e-06 -0.00208335 30.0076
-2.0552e-06 -0.00134081 30.0063 -1.7036e-06 -0.00249854 30.0072 -2.1295e-06 -0.000404325 30.0051 -1.48562e-06
-0.00170021 30.0075 -1.97371e-06 -0.00194027 30.0069 -1.82844e-06 -0.00246733 30.0076 -2.10001e-06 -0.000950339
30.0058 -1.62155e-06 -0.00236188 30.007 -2.14494e-06 -9.55544e-05 30.0048 -1.4153e-06 -0.000739127 30.0076
-2.00953e-06 -0.00179104 30.0067 -1.79219e-06 -0.0025779 30.0071 -2.14146e-06 -0.000269739 30.0049 -1.44743e-06
-0.00145923 30.0076 -2.08949e-06 -0.00119661 30.0061 -1.66837e-06 -0.00257167 30.007 -2.1542e-06 -0.000127731
30.0048 -1.4172e-06 -0.000976884 30.0077 -2.04523e-06 -0.00163663 30.0066 -1.75619e-06 -0.00267885 30.0075
-2.14434e-06 -0.000626986 30.0055 -1.54514e-06 -0.00219039 30.0074 -2.15292e-06 -0.000460058 30.0052 -1.4989e-06
-0.00196165 30.0076 -2.13335e-06 -0.000820363 30.0057 -1.58766e-06 -0.00241134 30 0 0
30 0 0 30.0043 -1.26008e-06 -0.000112153 30.0065 -2.02712e-06 -1.21e-05 30.0068
-2.11968e-06 -1.88366e-05 30.0045 -1.33805e-06 -0.000292601 30.007 -2.15985e-06 -0.000165953 30.0048 -1.41427e-06
-0.0012269 30.0072 -2.16014e-06 -0.000320089 30.005 -1.45379e-06 -0.00171743 30.0077 -2.08075e-06 -0.00147808
30.0064 -1.72021e-06 -0.00276993 30.0074 -1.92324e-06 -0.00245147 30.0069 -2.15385e-06 -3.60391e-05 30.0046
-1.36778e-06 -0.000511449 30.0077 -2.12362e-06 -0.00105075 30.0059 -1.63327e-06 -0.00263553 30.0072 -1.88572e-06
-0.00259381 30.0075 -1.96075e-06 -0.00230019 30.0076 -1.99796e-06 -0.00214088 30.007 -1.84831e-06 -0.00272652
30.007 -2.17415e-06 -6.09581e-05 30.0046 -1.3855e-06 -0.000738959 30.0078 -2.03488e-06 -0.00197455 30.0069
-1.81098e-06 -0.0028488 30.0071 -2.17154e-06 -0.000199996 30.0047 -1.41641e-06 -0.00147067 30.0078 -2.11587e-06
-0.00131651 30.0062 -1.68409e-06 -0.00285075 30.0075 -2.17618e-06 -0.000513565 30.0053 -1.51205e-06 -0.00222145
30.0076 -2.16628e-06 -0.0006907 30.0055 -1.55375e-06 -0.0024527 30.007 -2.18368e-06 -8.25468e-05 30.0046
-1.38702e-06 -0.000981477 30.0074 -2.184e-06 -0.000362404 30.0051 -1.46667e-06 -0.00198324 30.0077 -2.15767e-06
-0.000904226 30.0057 -1.59851e-06 -0.00269007 30.0079 -2.07165e-06 -0.00180232 30.0067 -1.77392e-06 -0.00296015
30 0 0 30 0 0 30.0041 -1.22937e-06 -0.000112434 30.0064
-2.05589e-06 -7.52544e-06 30.0072 -2.19068e-06 -0.000237699 30.0048 -1.42219e-06 -0.00172826 30.007 -2.18958e-06
-0.000109562 30.0046 -1.38376e-06 -0.00123669 30.0079 -2.1508e-06 -0.00115305 30.006 -1.64809e-06 -0.00292113
30.0068 -2.14832e-06 -5.77609e-06 30.0044 -1.30884e-06 -0.000295742 30.0079 -2.10821e-06 -0.00162536 30.0065
-1.73687e-06 -0.00306028 30.0075 -1.9496e-06 -0.00269932 30.0069 -2.18248e-06 -1.26641e-05 30.0044 -1.33855e-06
-0.000510632 30.0074 -1.91064e-06 -0.0028568 30.0077 -1.98857e-06 -0.00253168 30.0076 -2.19874e-06 -0.000562214
30.0053 -1.51986e-06 -0.00248605 30.0078 -2.02722e-06 -0.00235491 30.0072 -1.8718e-06 -0.00300337 30.0075
-2.20771e-06 -0.000401885 30.0051 -1.47934e-06 -0.00224619 30.0077 -2.19129e-06 -0.00075807 30.0055 -1.56381e-06
-0.00273526 30.0069 -2.20286e-06 -2.74572e-05 30.0045 -1.35595e-06 -0.000732651 30.0071 -2.20156e-06 -0.000132051
30.0046 -1.3856e-06 -0.0014776 30.008 -2.14436e-06 -0.00144495 30.0063 -1.6997e-06 -0.0031488 30.008
-2.06558e-06 -0.00217015 30.007 -1.83305e-06 -0.00313811 30.0074 -2.21497e-06 -0.000266896 30.0049 -1.43463e-06
-0.00199887 30.0079 -2.18563e-06 -0.000988837 30.0058 -1.61253e-06 -0.00298106 30.007 -2.21264e-06 -3.87503e-05
30.0045 -1.35684e-06 -0.00098413 30.0081 -2.10373e-06 -0.00197867 30.0068 -1.79454e-06 -0.0032605 30.0072
-2.22111e-06 -0.000157543 30.0046 -1.39081e-06 -0.00173174 30.0081 -2.18033e-06 -0.0012624 30.0061 -1.66269e-06
-0.0032255 30.007 -2.21882e-06 -5.49301e-05 30.0044 -1.35346e-06 -0.00124805 30 0 0
30 0 0 30.004 -1.20082e-06 -0.000116654 30.0064 -2.08387e-06 -3.07281e-06 30.0076
-2.23088e-06 -0.000435747 30.0051 -1.48634e-06 -0.00251162 30.0078 -2.22442e-06 -0.000613281 30.0053 -1.52912e-06
-0.00277106 30.0082 -2.14163e-06 -0.00178181 30.0066 -1.75601e-06 -0.00337022 30.0068 -2.17652e-06 6.74183e-06
30.0042 -1.28097e-06 -0.000303756 30.0075 -2.23911e-06 -0.000292664 30.0049 -1.44689e-06 -0.00226535 30.0079
-2.22002e-06 -0.000825058 30.0056 -1.57715e-06 -0.00303062 30.0078 -1.98956e-06 -0.00296938 30.0069 -2.21082e-06
9.58407e-06 30.0043 -1.31019e-06 -0.000507462 30.0076 -1.94893e-06 -0.00314356 30.008 -2.03012e-06 -0.00278368
30.0081 -2.07032e-06 -0.00258763 30.0074 -1.90842e-06 -0.00330539 30.0071 -2.23112e-06 -6.62725e-05 30.0044
-1.35518e-06 -0.00148009 30.0069 -2.23123e-06 4.64515e-06 30.0043 -1.32724e-06 -0.000717714 30.0073 -2.24578e-06
-0.00017401 30.0047 -1.40286e-06 -0.00200878 30.0082 -2.17913e-06 -0.00158101 30.0064 -1.7174e-06 -0.00346681
30.0081 -2.21618e-06 -0.00107899 30.0059 -1.62606e-06 -0.0032904 30.0082 -2.11017e-06 -0.00238252 30.0072
-1.86797e-06 -0.00345387 30.007 -2.24123e-06 3.40771e-06 30.0043 -1.32707e-06 -0.000986925 30.0084 -2.1498e-06
-0.00216977 30.007 -1.82773e-06 -0.00358838 30.0077 -2.25725e-06 -0.000470831 30.0051 -1.49486e-06 -0.00279749
30.0076 -2.26285e-06 -0.000312114 30.0049 -1.45313e-06 -0.00252983 30.0072 -2.25107e-06 -7.99939e-05 30.0045
-1.35973e-06 -0.00172448 30.0079 -2.25389e-06 -0.000662858 30.0054 -1.54178e-06 -0.00306996 30.0083 -2.21643e-06
-0.00137778 30.0062 -1.67897e-06 -0.00355008 30.007 -2.24769e-06 -2.33875e-06 30.0043 -1.32358e-06 -0.00126591
30.0075 -2.27029e-06 -0.00018652 30.0048 -1.41472e-06 -0.00228049 30.0081 -2.25156e-06 -0.000896099 30.0057
-1.58964e-06 -0.00334368 30.0085 -2.18915e-06 -0.00195091 30.0068 -1.7875e-06 -0.00370862 30 0
0 30 0 0 30.0038 -1.18101e-06 -0.000132764 30.0064 -2.11148e-06 1.20302e-06
30.0067 -2.20462e-06 1.8676e-05 30.0041 -1.25948e-06 -0.000316004 30.0081 -2.04211e-06 -0.00325548 30.0068
-2.23914e-06 3.07102e-05 30.0041 -1.28237e-06 -0.0005048 30.0083 -2.08389e-06 -0.00305045 30.0079 -2.00024e-06
-0.00344742 30.0073 -2.27612e-06 -8.42111e-05 30.0045 -1.3712e-06 -0.00201301 30.007 -2.26034e-06 -3.022e-06
30.0043 -1.32516e-06 -0.00147799 30.0083 -2.25358e-06 -0.00117359 30.0059 -1.64091e-06 -0.00362006 30.0084
-2.12531e-06 -0.00283365 30.0077 -1.95847e-06 -0.00362532 30.0085 -2.22804e-06 -0.0017276 30.0066 -1.74714e-06
-0.00381408 30.0069 -2.25951e-06 3.52502e-05 30.0042 -1.30477e-06 -0.000700916 30.0077 -2.2899e-06 -0.00033166
30.0049 -1.46083e-06 -0.00281454 30.0079 -2.28745e-06 -0.000503357 30.0052 -1.50685e-06 -0.00309931 30.0086
-2.16633e-06 -0.00260652 30.0075 -1.91677e-06 -0.00378813 30.0076 -2.29458e-06 -0.000192053 30.0047 -1.4202e-06
-0.00254127 30.0081 -2.28641e-06 -0.000715032 30.0054 -1.55332e-06 -0.00338563 30.0069 -2.26966e-06 4.36796e-05
30.0041 -1.29972e-06 -0.000987195 30.0087 -2.20715e-06 -0.0023707 30.0073 -1.87529e-06 -0.00393519 30.0071
-2.2807e-06 -5.49944e-06 30.0043 -1.329e-06 -0.00170076 30.0086 -2.26668e-06 -0.00150153 30.0063 -1.70694e-06
-0.00390458 30.0074 -2.30102e-06 -8.40138e-05 30.0046 -1.38285e-06 -0.00229548 30.0083 -2.29022e-06 -0.000969998
30.0057 -1.60301e-06 -0.0036769 30.0069 -2.27637e-06 4.78789e-05 30.0041 -1.30008e-06 -0.00128331 30.0088
-2.24766e-06 -0.00212791 30.007 -1.8339e-06 -0.00406616 30 0 0 30.0063 -2.13879e-06
5.38359e-06 30.0067 -2.23244e-06 3.00726e-05 30.0079 -2.32082e-06 -0.000347638 30.005 -1.47217e-06 -0.00311903
30.0073 -2.30614e-06 1.9319e-06 30.0043 -1.33998e-06 -0.00201091 30.0084 -2.0935e-06 -0.00355474 30.0086
-2.30511e-06 -0.00127441 30.0061 -1.66716e-06 -0.00398014 30.0068 -2.26718e-06 5.06652e-05 30.0077 -2.32227e-06
-0.000196622 30.0047 -1.42702e-06 -0.00282168 30.0081 -2.32093e-06 -0.000537076 30.0052 -1.51747e-06 -0.00341667
30.0085 -2.13648e-06 -0.00332935 30.0082 -2.05041e-06 -0.00376524 30.007 -2.28933e-06 5.73139e-05 30.0041
-1.29797e-06 -0.00147198 30.0089 -2.28765e-06 -0.00188004 30.0068 -1.79242e-06 -0.00418061 30.0087 -2.17912e-06
-0.00309051 30.0079 -2.00741e-06 -0.00395972 30.0068 -2.28738e-06 6.4282e-05 30.0075 -2.32582e-06 -7.62535e-05
30.0045 -1.38772e-06 -0.00254694 30.0083 -2.32631e-06 -0.000768517 30.0055 -1.56532e-06 -0.00372076 30.0089
-2.22136e-06 -0.00283984 30.0077 -1.96452e-06 -0.00413709 30.0069 -2.29766e-06 8.18446e-05 30.0071 -2.31007e-06
6.55082e-05 30.0041 -1.30489e-06 -0.00167176 30.009 -2.26335e-06 -0.00257922 30.0075 -1.92184e-06 -0.00429664
30.0089 -2.32736e-06 -0.00162903 30.0065 -1.7511e-06 -0.00427834 30.0074 -2.33142e-06 1.42345e-05 30.0044
-1.35146e-06 -0.00231623 30.0086 -2.34299e-06 -0.00104801 30.0058 -1.62761e-06 -0.00404088 30.0069 -2.3046e-06
9.54249e-05 30.0078 -2.35387e-06 -0.00019668 30.0048 -1.43769e-06 -0.00312963 30.0081 -2.35523e-06 -0.000363471
30.005 -1.48195e-06 -0.00343744 30.0091 -2.30498e-06 -0.00231063 30.0072 -1.87929e-06 -0.00443799 30.0076
-2.35412e-06 -6.65314e-05 30.0045 -1.39355e-06 -0.00281664 30.0083 -2.36204e-06 -0.000570612 30.0053 -1.52813e-06
-0.00375182 30.0072 -2.33586e-06 8.39454e-05 30.0042 -1.31204e-06 -0.00200261 30 0 0
30 0 0 30.0063 -2.16583e-06 9.29969e-06 30.0036 -1.14366e-06 -0.000179449 30.009
-2.3668e-06 -0.00137684 30.0063 -1.71032e-06 -0.00435951 30.0066 -2.25991e-06 4.0925e-05 30.0069 -2.31787e-06
0.000114402 30.0086 -2.14029e-06 -0.00387339 30.0075 -2.35673e-06 3.46191e-05 30.0044 -1.35574e-06 -0.00254914
30.0067 -2.29479e-06 6.95912e-05 30.0088 -2.1848e-06 -0.0036258 30.0084 -2.09561e-06 -0.00410406 30.0092
-2.34609e-06 -0.0020362 30.0086 -2.38029e-06 -0.000824063 30.007 -1.83671e-06 -0.00456066 30.0056 -1.58818e-06
-0.00408685 30.0038 -1.22587e-06 -0.000532384 30.009 -2.22894e-06 -0.00336287 30.0081 -2.05098e-06 -0.00431649
30.0068 -2.31481e-06 9.16238e-05 30.0091 -2.27267e-06 -0.00308643 30.0079 -2.00645e-06 -0.00450961 30.0073
-2.36152e-06 0.00010767 30.0042 -1.32714e-06 -0.00233735 30.007 -2.33896e-06 0.000132649 30.009 -2.40565e-06
-0.0011255 30.006 -1.66993e-06 -0.00442441 30.0068 -2.32525e-06 0.00011774 30.008 -2.38919e-06 -0.000195346
30.0048 -1.44671e-06 -0.00344938 30.0092 -2.38689e-06 -0.00175817 30.0067 -1.79436e-06 -0.00466456 30.0038
-1.24116e-06 -0.0010008 30.0078 -2.38639e-06 -5.14255e-05 30.0046 -1.40351e-06 -0.00313178 30.0093 -2.31611e-06
-0.0027986 30.0076 -1.96212e-06 -0.00468258 30.0083 -2.3975e-06 -0.000377702 30.005 -1.49132e-06 -0.00377027
30.0076 -2.38559e-06 5.78531e-05 30.0043 -1.36054e-06 -0.00279663 30.0086 -2.41719e-06 -0.000604238 30.0054
-1.54928e-06 -0.00411803 30.0068 -2.33245e-06 0.000140095 30.0094 -2.35912e-06 -0.00250165 30.0073 -1.91789e-06
-0.00483493 30.0071 -2.36509e-06 0.000161416 30.0093 -2.42735e-06 -0.00147879 30.0064 -1.75259e-06 -0.00474994
30.0074 -2.38731e-06 0.000139946 30.0042 -1.32677e-06 -0.00254962 30.009 -2.44391e-06 -0.000876994 30.0058
-1.62975e-06 -0.00447342 30 0 0 30.0062 -2.19258e-06 1.28294e-05 30.0066 -2.28707e-06
5.11711e-05 30.0069 -2.34601e-06 0.000167994 30.0038 -1.24066e-06 -0.00146369 30.0095 -2.40158e-06 -0.00219804
30.0071 -1.87364e-06 -0.0049662 30.0088 -2.18683e-06 -0.00421984 30.0066 -2.32203e-06 8.7531e-05 30.0091
-2.23298e-06 -0.00394738 30.0086 -2.14048e-06 -0.0044731 30.0093 -2.27874e-06 -0.00365749 30.0083 -2.09414e-06
-0.00470569 30.008 -2.42258e-06 -3.37759e-05 30.0046 -1.41196e-06 -0.00345611 30.0082 -2.4326e-06 -0.00019109
30.0048 -1.45493e-06 -0.00377647 30.0067 -2.34194e-06 0.000117154 30.0077 -2.41852e-06 8.72689e-05 30.0044
-1.36975e-06 -0.00312653 30.0086 -2.45379e-06 -0.000390155 30.0051 -1.51082e-06 -0.00413429 30.0072 -2.39114e-06
0.000195825 30.0094 -2.32406e-06 -0.00335227 30.0081 -2.04789e-06 -0.00491646 30.0093 -2.46719e-06 -0.00120039
30.0062 -1.71132e-06 -0.00481726 30.007 -2.36746e-06 0.000195626 30.0095 -2.44369e-06 -0.00189032 30.0068