# vtk DataFile Version 2.0
track0
ASCII
DATASET POLYDATA
POINTS 15780 float
-1.001 -0.05 0.0011
-1.0008 -0.05 0.0011
-1.0006 -0.05 0.0011
-1.0004 -0.05 0.0011
-1.0002 -0.05 0.0011
-1 -0.05 0.0011
-0.9875 -0.05 0.0011
-0.975 -0.05 0.0011
-0.9625 -0.05 0.0011
-0.95 -0.05 0.0011
-0.9375 -0.05 0.00109999
-0.925 -0.05 0.00109999
-0.9125 -0.05 0.00109999
-0.9 -0.05 0.00109999
-0.8875 -0.05 0.00109999
-0.875 -0.05 0.00109999
-0.8625 -0.05 0.00109999
-0.85 -0.05 0.00109999
-0.8375 -0.05 0.00109998
-0.825 -0.0500001 0.00109998
-0.8125 -0.0500001 0.00109998
-0.8 -0.0500001 0.00109998
-0.7875 -0.0500001 0.00109998
-0.775 -0.0500001 0.00109998
-0.7625 -0.0500001 0.00109998
-0.75 -0.0500001 0.00109998
-0.7375 -0.0500001 0.00109997
-0.725 -0.0500001 0.00109997
-0.7125 -0.0500001 0.00109997
-0.7 -0.0500001 0.00109997
-0.6875 -0.0500001 0.00109997
-0.675 -0.0500001 0.00109997
-0.6625 -0.0500001 0.00109997
-0.65 -0.0500001 0.00109996
-0.6375 -0.0500001 0.00109996
-0.625 -0.0500001 0.00109996
-0.6125 -0.0500001 0.00109996
-0.6 -0.0500001 0.00109996
-0.5875 -0.0500001 0.00109996
-0.575 -0.0500001 0.00109996
-0.5625 -0.0500001 0.00109996
-0.55 -0.0500001 0.00109995
-0.5375 -0.0500001 0.00109995
-0.525 -0.0500001 0.00109995
-0.5125 -0.0500001 0.00109995
-0.5 -0.0500001 0.00109995
-0.4875 -0.0500001 0.00109995
-0.475 -0.0500001 0.00109995
-0.4625 -0.0500001 0.00109994
-0.45 -0.0500002 0.00109994
-0.4375 -0.0500002 0.00109994
-0.425 -0.0500002 0.00109994
-0.4125 -0.0500002 0.00109994
-0.4 -0.0500002 0.00109994
-0.3875 -0.0500002 0.00109994
-0.375 -0.0500002 0.00109994
-0.3625 -0.0500002 0.00109993
-0.35 -0.0500002 0.00109993
-0.3375 -0.0500002 0.00109993
-0.325 -0.0500002 0.00109993
-0.3125 -0.0500002 0.00109993
-0.3 -0.0500002 0.00109993
-0.2875 -0.0500002 0.00109993
-0.275 -0.0500002 0.00109993
-0.2625 -0.0500002 0.00109992
-0.25 -0.0500002 0.00109992
-0.2375 -0.0500002 0.00109992
-0.225 -0.0500002 0.00109992
-0.2125 -0.0500002 0.00109992
-0.2 -0.0500002 0.00109992
-0.1875 -0.0500002 0.00109992
-0.175 -0.0500002 0.00109992
-0.1625 -0.0500002 0.00109991
-0.15 -0.0500002 0.00109991
-0.1375 -0.0500002 0.00109991
-0.125 -0.0500002 0.00109991
-0.1125 -0.0500002 0.00109991
-0.1 -0.0500002 0.00109991
-0.0875 -0.0500002 0.00109991
-0.075 -0.0500002 0.00109991
-0.0625 -0.0500002 0.00109991
-0.05 -0.0500003 0.00109991
-0.0375 -0.0500003 0.0010999
-0.025 -0.0500003 0.0010999
-0.0125 -0.0500003 0.0010999
2.10607e-13 -0.0500003 0.0010999
0.0125 -0.0500003 0.0010999
0.025 -0.0500003 0.0010999
0.0375 -0.0500003 0.0010999
0.05 -0.0500003 0.0010999
0.0625 -0.0500003 0.0010999
0.075 -0.0500003 0.0010999
0.0875 -0.0500003 0.0010999
0.1 -0.0500003 0.00109989
0.1125 -0.0500003 0.00109989
0.125 -0.0500003 0.00109989
0.1375 -0.0500003 0.00109989
0.15 -0.0500003 0.00109989
0.1625 -0.0500003 0.00109989
0.175 -0.0500003 0.00109989
0.1875 -0.0500003 0.00109989
0.2 -0.0500003 0.00109989
0.2125 -0.0500003 0.00109989
0.225 -0.0500003 0.00109989
0.2375 -0.0500003 0.00109989
0.25 -0.0500003 0.00109989
0.2625 -0.0500003 0.00109988
0.275 -0.0500003 0.00109988
0.2875 -0.0500003 0.00109988
0.3 -0.0500003 0.00109988
0.3125 -0.0500003 0.00109988
0.325 -0.0500003 0.00109988
0.3375 -0.0500003 0.00109988
0.35 -0.0500003 0.00109988
0.3625 -0.0500003 0.00109988
0.375 -0.0500003 0.00109988
0.3875 -0.0500003 0.00109988
0.4 -0.0500004 0.00109988
0.4125 -0.0500004 0.00109988
0.425 -0.0500004 0.00109988
0.4375 -0.0500004 0.00109988
0.45 -0.0500004 0.00109988
0.4625 -0.0500004 0.00109988
0.475 -0.0500004 0.00109988
0.4875 -0.0500004 0.00109988
0.5 -0.0500004 0.00109988
0.5125 -0.0500004 0.00109988
0.525 -0.0500004 0.00109988
0.5375 -0.0500004 0.00109988
0.55 -0.0500004 0.00109988
0.5625 -0.0500004 0.00109988
0.575 -0.0500004 0.00109987
0.5875 -0.0500004 0.00109987
0.6 -0.0500004 0.00109987
0.6125 -0.0500004 0.00109987
0.625 -0.0500004 0.00109987
0.6375 -0.0500004 0.00109987
0.65 -0.0500004 0.00109987
0.6625 -0.0500004 0.00109987
0.675 -0.0500004 0.00109987
0.6875 -0.0500004 0.00109987
0.7 -0.0500004 0.00109987
0.7125 -0.0500004 0.00109987
0.725 -0.0500004 0.00109987
0.7375 -0.0500004 0.00109987
0.75 -0.0500004 0.00109987
0.7625 -0.0500004 0.00109987
0.775 -0.0500004 0.00109987
0.7875 -0.0500004 0.00109987
0.8 -0.0500004 0.00109987
0.8125 -0.0500004 0.00109987
0.825 -0.0500004 0.00109987
0.8375 -0.0500004 0.00109987
0.85 -0.0500004 0.00109987
0.8625 -0.0500004 0.00109987
0.875 -0.0500004 0.00109987
0.8875 -0.0500004 0.00109987
0.9 -0.0500004 0.00109987
0.9125 -0.0500005 0.00109988
0.925 -0.0500005 0.00109988
0.9375 -0.0500005 0.00109988
0.95 -0.0500005 0.00109988
0.9625 -0.0500005 0.00109988
0.975 -0.0500005 0.00109988
0.9875 -0.0500005 0.00109988
1 -0.0500005 0.00109988
1.0125 -0.0500005 0.00109988
1.025 -0.0500005 0.00109988
1.0375 -0.0500005 0.00109988
1.05 -0.0500005 0.00109988
1.0625 -0.0500005 0.00109988
1.075 -0.0500005 0.00109988
1.0875 -0.0500005 0.00109988
1.1 -0.0500005 0.00109988
1.1125 -0.0500005 0.00109988
1.125 -0.0500005 0.00109988
1.1375 -0.0500005 0.00109988
1.15 -0.0500005 0.00109988
1.1625 -0.0500005 0.00109988
1.175 -0.0500005 0.00109988
1.1875 -0.0500005 0.00109988
1.2 -0.0500005 0.00109988
1.2125 -0.0500005 0.00109988
1.225 -0.0500005 0.00109988
1.2375 -0.0500005 0.00109989
1.25 -0.0500005 0.00109989
1.2625 -0.0500005 0.00109989
1.275 -0.0500005 0.00109989
1.2875 -0.0500005 0.00109989
1.3 -0.0500005 0.00109989
1.3125 -0.0500005 0.00109989
1.325 -0.0500005 0.00109989
1.3375 -0.0500005 0.00109989
1.35 -0.0500005 0.00109989
1.3625 -0.0500005 0.00109989
1.375 -0.0500005 0.00109989
1.3875 -0.0500005 0.00109989
1.4 -0.0500005 0.00109989
1.4125 -0.0500005 0.00109989
1.425 -0.0500005 0.00109989
1.4375 -0.0500005 0.0010999
1.45 -0.0500005 0.0010999
1.4625 -0.0500005 0.0010999
1.475 -0.0500005 0.0010999
1.4875 -0.0500005 0.0010999
1.5 -0.0500006 0.0010999
1.5125 -0.0500006 0.0010999
1.525 -0.0500006 0.0010999
1.5375 -0.0500006 0.0010999
1.55 -0.0500006 0.0010999
1.5625 -0.0500006 0.0010999
1.575 -0.0500006 0.0010999
1.5875 -0.0500006 0.0010999
1.6 -0.0500006 0.0010999
1.6125 -0.0500006 0.00109991
1.625 -0.0500006 0.00109991
1.6375 -0.0500006 0.00109991
1.65 -0.0500006 0.00109991
1.6625 -0.0500006 0.00109991
1.675 -0.0500006 0.00109991
1.6875 -0.0500006 0.00109991
1.7 -0.0500006 0.00109991
1.7125 -0.0500006 0.00109991
1.725 -0.0500006 0.00109991
1.7375 -0.0500006 0.00109991
1.75 -0.0500006 0.00109991
1.7625 -0.0500006 0.00109992
1.775 -0.0500006 0.00109992
1.7875 -0.0500006 0.00109992
1.8 -0.0500006 0.00109992
1.8125 -0.0500006 0.00109992
1.825 -0.0500006 0.00109992
1.8375 -0.0500006 0.00109992
1.85 -0.0500006 0.00109992
1.8625 -0.0500006 0.00109992
1.875 -0.0500006 0.00109992
1.8875 -0.0500006 0.00109992
1.9 -0.0500006 0.00109992
1.9125 -0.0500006 0.00109993
1.925 -0.0500006 0.00109993
1.9375 -0.0500006 0.00109993
1.95 -0.0500006 0.00109993
1.9625 -0.0500006 0.00109993
1.975 -0.0500006 0.00109993
1.9875 -0.0500006 0.00109993
2 -0.0500006 0.00109993
2.0125 -0.0500006 0.00109993
2.025 -0.0500006 0.00109993
2.0375 -0.0500006 0.00109993
2.05 -0.0500006 0.00109993
2.0625 -0.0500006 0.00109994
2.075 -0.0500006 0.00109994
2.0875 -0.0500006 0.00109994
2.1 -0.0500006 0.00109994
2.1125 -0.0500006 0.00109994
2.125 -0.0500006 0.00109994
2.1375 -0.0500006 0.00109994
2.15 -0.0500006 0.00109994
2.1625 -0.0500006 0.00109994
2.175 -0.0500007 0.00109994
2.1875 -0.0500007 0.00109994
2.2 -0.0500007 0.00109994
2.2125 -0.0500007 0.00109994
2.225 -0.0500007 0.00109995
2.2375 -0.0500007 0.00109995
2.25 -0.0500007 0.00109995
2.2625 -0.0500007 0.00109995
2.275 -0.0500007 0.00109995
2.2875 -0.0500007 0.00109995
2.3 -0.0500007 0.00109995
2.3125 -0.0500007 0.00109995
2.325 -0.0500007 0.00109995
2.3375 -0.0500007 0.00109995
2.35 -0.0500007 0.00109995
2.3625 -0.0500007 0.00109995
2.375 -0.0500007 0.00109995
2.3875 -0.0500007 0.00109996
2.4 -0.0500007 0.00109996
2.4125 -0.0500007 0.00109996
2.425 -0.0500007 0.00109996
2.4375 -0.0500007 0.00109996
2.45 -0.0500007 0.00109996
2.4625 -0.0500007 0.00109996
2.475 -0.0500007 0.00109996
2.4875 -0.0500007 0.00109996
2.5 -0.0500007 0.00109996
2.5125 -0.0500007 0.00109996
2.525 -0.0500007 0.00109996
2.5375 -0.0500007 0.00109996
2.55 -0.0500007 0.00109996
2.5625 -0.0500007 0.00109997
2.575 -0.0500007 0.00109997
2.5875 -0.0500007 0.00109997
2.6 -0.0500007 0.00109997
2.6125 -0.0500007 0.00109997
2.625 -0.0500007 0.00109997
2.6375 -0.0500007 0.00109997
2.65 -0.0500007 0.00109997
2.6625 -0.0500007 0.00109997
2.675 -0.0500007 0.00109997
2.6875 -0.0500007 0.00109997
2.7 -0.0500007 0.00109997
2.7125 -0.0500007 0.00109997
2.725 -0.0500007 0.00109997
2.7375 -0.0500007 0.00109997
2.75 -0.0500007 0.00109997
2.7625 -0.0500007 0.00109998
2.775 -0.0500007 0.00109998
2.7875 -0.0500007 0.00109998
2.8 -0.0500007 0.00109998
2.8125 -0.0500007 0.00109998
2.825 -0.0500007 0.00109998
2.8375 -0.0500007 0.00109998
2.85 -0.0500007 0.00109998
2.8625 -0.0500008 0.00109998
2.875 -0.0500008 0.00109998
2.8875 -0.0500008 0.00109998
2.9 -0.0500008 0.00109998
2.9125 -0.0500008 0.00109998
2.925 -0.0500008 0.00109998
2.9375 -0.0500008 0.00109998
2.95 -0.0500008 0.00109998
2.9625 -0.0500008 0.00109998
2.975 -0.0500008 0.00109998
2.9875 -0.0500008 0.00109998
3 -0.0500008 0.00109998
3.0125 -0.0500008 0.00109999
3.025 -0.0500008 0.00109999
3.0375 -0.0500008 0.00109999
3.05 -0.0500008 0.00109999
3.0625 -0.0500008 0.00109999
3.075 -0.0500008 0.00109999
3.0875 -0.0500008 0.00109999
3.1 -0.0500008 0.00109999
3.1125 -0.0500008 0.00109999
3.125 -0.0500008 0.00109999
3.1375 -0.0500008 0.00109999
3.15 -0.0500008 0.00109999
3.1625 -0.0500008 0.00109999
3.175 -0.0500008 0.00109999
3.1875 -0.0500008 0.00109999
3.2 -0.0500008 0.00109999
3.2125 -0.0500008 0.00109999
3.225 -0.0500008 0.00109999
3.2375 -0.0500008 0.00109999
3.25 -0.0500008 0.00109999
3.2625 -0.0500008 0.00109999
3.275 -0.0500008 0.00109999
3.2875 -0.0500008 0.00109999
3.3 -0.0500008 0.00109999
3.3125 -0.0500008 0.00109999
3.325 -0.0500008 0.00109999
3.3375 -0.0500008 0.00109999
3.35 -0.0500008 0.0011
3.3625 -0.0500008 0.0011
[...]
POINT_DATA 15780
 FIELD attributes 1
U 3 15780 float
30.0002 	-7.01786e-06 	-6.30587e-06 30.0002 	-6.84337e-06 	-6.51453e-06 30.0002 	-6.66888e-06 	-6.7232e-06 30.0002 	-6.49439e-06 	-6.93187e-06 30.0002 	-6.31991e-06 	-7.14054e-06 30.0002 	-6.14542e-06 	-7.3492e-06 30.0004 	-1.23851e-05 	-1.26099e-06 30.0004 	-1.23851e-05 	-1.26099e-06 30.0004 	-1.23851e-05 	-1.26099e-06 30.0004 	-1.23851e-05 	-1.26099e-06 30.0002 	-7.0463e-08 	-6.84366e-06 30.0005 	-1.0709e-05 	-1.68704e-06 30.0005 	-1.07089e-05 	-1.68703e-06 30.0005 	-1.07089e-05 	-1.68703e-06 30.0005 	-1.07089e-05 	-1.68703e-06 30.0002 	-7.2136e-08 	-6.59607e-06 30.0005 	-9.95835e-06 	-2.08021e-06 30.0005 	-9.95834e-06 	-2.08021e-06 30.0005 	-9.95834e-06 	-2.08021e-06 30.0005 	-9.95833e-06 	-2.08021e-06 30.0003 	-4.59301e-06 	-6.24725e-06 30.0005 	-9.69157e-06 	-2.34894e-06 30.0005 	-9.69156e-06 	-2.34893e-06 30.0005 	-9.69156e-06 	-2.34893e-06 30.0005 	-9.69155e-06 	-2.34893e-06 30.0003 	-7.57137e-08 	-6.57614e-06 30.0005 	-9.52336e-06 	-2.49781e-06 30.0005 	-9.52335e-06 	-2.4978e-06 30.0005 	-9.52334e-06 	-2.4978e-06 30.0005 	-9.52334e-06 	-2.4978e-06 30.0003 	-7.74617e-08 	-6.52625e-06 30.0005 	-9.38699e-06 	-2.55605e-06 30.0005 	-9.38698e-06 	-2.55605e-06 30.0005 	-9.38697e-06 	-2.55604e-06 30.0005 	-9.38696e-06 	-2.55604e-06 30.0003 	-4.26679e-06 	-6.08527e-06 30.0005 	-9.27955e-06 	-2.55828e-06 30.0005 	-9.27954e-06 	-2.55828e-06 30.0005 	-9.27953e-06 	-2.55827e-06 30.0005 	-9.27952e-06 	-2.55827e-06 30.0003 	-4.19917e-06 	-5.97788e-06 30.0006 	-9.18732e-06 	-2.53041e-06 30.0006 	-9.18731e-06 	-2.53041e-06 30.0006 	-9.1873e-06 	-2.53041e-06 30.0006 	-9.18729e-06 	-2.5304e-06 30.0003 	-8.27314e-08 	-6.20125e-06 30.0006 	-9.09724e-06 	-2.48116e-06 30.0006 	-9.09723e-06 	-2.48116e-06 30.0006 	-9.09722e-06 	-2.48116e-06 30.0006 	-9.09721e-06 	-2.48116e-06 30.0003 	-8.44769e-08 	-6.05422e-06 30.0006 	-9.00477e-06 	-2.41359e-06 30.0006 	-9.00476e-06 	-2.41359e-06 30.0006 	-9.00475e-06 	-2.41359e-06 30.0006 	-9.00474e-06 	-2.41358e-06 30.0003 	-8.62289e-08 	-5.88781e-06 30.0006 	-8.90862e-06 	-2.32971e-06 30.0006 	-8.90861e-06 	-2.32971e-06 30.0006 	-8.9086e-06 	-2.32971e-06 30.0006 	-8.90859e-06 	-2.3297e-06 30.0003 	-3.93774e-06 	-5.36346e-06 30.0006 	-8.80857e-06 	-2.23273e-06 30.0006 	-8.80857e-06 	-2.23273e-06 30.0006 	-8.80856e-06 	-2.23273e-06 30.0006 	-8.80855e-06 	-2.23273e-06 30.0003 	-3.86394e-06 	-5.16475e-06 30.0006 	-8.70427e-06 	-2.12413e-06 30.0006 	-8.70426e-06 	-2.12413e-06 30.0006 	-8.70426e-06 	-2.12413e-06 30.0006 	-8.70425e-06 	-2.12413e-06 30.0003 	-9.14796e-08 	-5.28457e-06 30.0006 	-8.59608e-06 	-2.00507e-06 30.0006 	-8.59608e-06 	-2.00507e-06 30.0006 	-8.59607e-06 	-2.00506e-06 30.0006 	-8.59606e-06 	-2.00506e-06 30.0003 	-3.70433e-06 	-4.71939e-06 30.0007 	-8.48471e-06 	-1.87667e-06 30.0007 	-8.48471e-06 	-1.87667e-06 30.0007 	-8.4847e-06 	-1.87667e-06 30.0007 	-8.48469e-06 	-1.87667e-06 30.0003 	-3.61924e-06 	-4.47431e-06 30.0007 	-8.37137e-06 	-1.73883e-06 30.0007 	-8.37137e-06 	-1.73883e-06 30.0007 	-8.37136e-06 	-1.73883e-06 30.0007 	-8.37136e-06 	-1.73883e-06 30.0004 	-9.67268e-08 	-4.54318e-06 30.0007 	-8.25983e-06 	-1.59803e-06 30.0007 	-8.25983e-06 	-1.59803e-06 30.0007 	-8.25982e-06 	-1.59802e-06 30.0007 	-8.25982e-06 	-1.59802e-06 30.0004 	-9.84815e-08 	-4.27123e-06 30.0007 	-8.14784e-06 	-1.46322e-06 30.0007 	-8.14783e-06 	-1.46322e-06 30.0007 	-8.14783e-06 	-1.46322e-06 30.0007 	-8.14782e-06 	-1.46322e-06 30.0004 	-1.00226e-07 	-3.98926e-06 30.0007 	-8.01978e-06 	-1.32072e-06 30.0007 	-8.01977e-06 	-1.32072e-06 30.0007 	-8.01977e-06 	-1.32072e-06 30.0007 	-8.01977e-06 	-1.32072e-06 30.0004 	-3.25092e-06 	-3.37795e-06 30.0007 	-7.881e-06 	-1.168e-06 30.0007 	-7.88099e-06 	-1.168e-06 30.0007 	-7.88099e-06 	-1.168e-06 30.0007 	-7.88098e-06 	-1.168e-06 30.0004 	-1.03673e-07 	-3.40288e-06 30.0007 	-7.74509e-06 	-1.00787e-06 30.0007 	-7.74508e-06 	-1.00787e-06 30.0007 	-7.74508e-06 	-1.00787e-06 30.0007 	-7.74508e-06 	-1.00787e-06 30.0004 	-1.05397e-07 	-3.10327e-06 30.0007 	-7.61096e-06 	-8.4186e-07 30.0007 	-7.61096e-06 	-8.4186e-07 30.0007 	-7.61095e-06 	-8.41859e-07 30.0007 	-7.61095e-06 	-8.41859e-07 30.0004 	-2.93178e-06 	-2.48788e-06 30.0007 	-7.47519e-06 	-6.70211e-07 30.0007 	-7.47519e-06 	-6.70211e-07 30.0007 	-7.47519e-06 	-6.7021e-07 30.0007 	-7.47518e-06 	-6.7021e-07 30.0004 	-2.82532e-06 	-2.18312e-06 30.0007 	-7.34309e-06 	-4.97056e-07 30.0007 	-7.34309e-06 	-4.97056e-07 30.0007 	-7.34309e-06 	-4.97056e-07 30.0007 	-7.34309e-06 	-4.97056e-07 30.0004 	-1.10512e-07 	-2.17111e-06 30.0007 	-7.21531e-06 	-3.1733e-07 30.0007 	-7.21531e-06 	-3.1733e-07 30.0007 	-7.21531e-06 	-3.1733e-07 30.0007 	-7.21531e-06 	-3.1733e-07 30.0004 	-1.12199e-07 	-1.85337e-06 30.0007 	-7.09858e-06 	-1.38223e-07 30.0007 	-7.09858e-06 	-1.38223e-07 30.0007 	-7.09858e-06 	-1.38223e-07 30.0007 	-7.09858e-06 	-1.38223e-07 30.0004 	-1.13864e-07 	-1.54903e-06 30.0007 	-6.98525e-06 	4.08446e-08 30.0007 	-6.98526e-06 	4.08446e-08 30.0007 	-6.98526e-06 	4.08446e-08 30.0007 	-6.98526e-06 	4.08446e-08 30.0004 	-2.43891e-06 	-9.58503e-07 30.0007 	-6.87166e-06 	2.14658e-07 30.0007 	-6.87166e-06 	2.14658e-07 30.0007 	-6.87166e-06 	2.14658e-07 30.0007 	-6.87166e-06 	2.14658e-07 30.0004 	-2.34732e-06 	-6.82302e-07 30.0007 	-6.75356e-06 	3.90711e-07 30.0007 	-6.75356e-06 	3.90711e-07 30.0007 	-6.75357e-06 	3.90711e-07 30.0007 	-6.75357e-06 	3.90711e-07 30.0004 	-1.18871e-07 	-7.09777e-07 30.0007 	-6.6431e-06 	5.64367e-07 30.0007 	-6.6431e-06 	5.64367e-07 30.0007 	-6.6431e-06 	5.64367e-07 30.0007 	-6.6431e-06 	5.64367e-07 30.0004 	-2.16701e-06 	-1.45441e-07 30.0007 	-6.53613e-06 	7.27393e-07 30.0007 	-6.53613e-06 	7.27393e-07 30.0007 	-6.53613e-06 	7.27393e-07 30.0007 	-6.53613e-06 	7.27393e-07 30.0004 	-2.08135e-06 	1.13837e-07 30.0007 	-6.43084e-06 	8.78831e-07 30.0007 	-6.43084e-06 	8.78831e-07 30.0007 	-6.43084e-06 	8.78832e-07 30.0007 	-6.43084e-06 	8.78832e-07 30.0004 	-1.23821e-07 	7.05756e-08 30.0007 	-6.32332e-06 	1.01779e-06 30.0007 	-6.32333e-06 	1.01779e-06 30.0007 	-6.32333e-06 	1.01779e-06 30.0007 	-6.32333e-06 	1.01779e-06 30.0004 	-1.25426e-07 	3.15809e-07 30.0007 	-6.21696e-06 	1.14062e-06 30.0007 	-6.21696e-06 	1.14062e-06 30.0007 	-6.21696e-06 	1.14062e-06 30.0007 	-6.21697e-06 	1.14062e-06 30.0004 	-1.27014e-07 	5.45528e-07 30.0007 	-6.11569e-06 	1.25632e-06 30.0007 	-6.1157e-06 	1.25632e-06 30.0007 	-6.1157e-06 	1.25632e-06 30.0007 	-6.1157e-06 	1.25632e-06 30.0004 	-1.76456e-06 	1.03209e-06 30.0007 	-6.02297e-06 	1.37127e-06 30.0007 	-6.02297e-06 	1.37127e-06 30.0007 	-6.02298e-06 	1.37127e-06 30.0007 	-6.02298e-06 	1.37127e-06 30.0004 	-1.30119e-07 	9.36947e-07 30.0007 	-5.94331e-06 	1.4885e-06 30.0007 	-5.94331e-06 	1.4885e-06 30.0007 	-5.94332e-06 	1.4885e-06 30.0007 	-5.94332e-06 	1.4885e-06 30.0004 	-1.3162e-07 	1.10457e-06 30.0007 	-5.87208e-06 	1.59289e-06 30.0007 	-5.87208e-06 	1.59289e-06 30.0007 	-5.87208e-06 	1.59289e-06 30.0007 	-5.87209e-06 	1.59289e-06 30.0004 	-1.59166e-06 	1.53878e-06 30.0007 	-5.80244e-06 	1.67932e-06 30.0007 	-5.80245e-06 	1.67932e-06 30.0007 	-5.80245e-06 	1.67932e-06 30.0007 	-5.80245e-06 	1.67932e-06 30.0003 	-1.54444e-06 	1.67822e-06 30.0007 	-5.73439e-06 	1.75011e-06 30.0007 	-5.73439e-06 	1.75011e-06 30.0007 	-5.7344e-06 	1.75011e-06 30.0007 	-5.7344e-06 	1.75012e-06 30.0003 	-1.36298e-07 	1.52473e-06 30.0006 	-5.66923e-06 	1.80981e-06 30.0006 	-5.66923e-06 	1.80982e-06 30.0006 	-5.66924e-06 	1.80982e-06 30.0006 	-5.66924e-06 	1.80982e-06 30.0003 	-1.37835e-07 	1.63228e-06 30.0006 	-5.60912e-06 	1.85995e-06 30.0006 	-5.60913e-06 	1.85995e-06 30.0006 	-5.60913e-06 	1.85995e-06 30.0006 	-5.60913e-06 	1.85995e-06 30.0003 	-1.39285e-07 	1.72401e-06 30.0006 	-5.55479e-06 	1.90044e-06 30.0006 	-5.55479e-06 	1.90044e-06 30.0006 	-5.5548e-06 	1.90044e-06 30.0006 	-5.5548e-06 	1.90044e-06 30.0003 	-1.38906e-06 	2.07104e-06 30.0006 	-5.50592e-06 	1.9311e-06 30.0006 	-5.50592e-06 	1.9311e-06 30.0006 	-5.50593e-06 	1.9311e-06 30.0006 	-5.50593e-06 	1.9311e-06 30.0003 	-1.36201e-06 	2.13098e-06 30.0006 	-5.46215e-06 	1.95183e-06 30.0006 	-5.46216e-06 	1.95183e-06 30.0006 	-5.46216e-06 	1.95183e-06 30.0006 	-5.46217e-06 	1.95184e-06 30.0003 	-1.4325e-07 	1.90827e-06 30.0006 	-5.42332e-06 	1.96278e-06 30.0006 	-5.42332e-06 	1.96278e-06 30.0006 	-5.42333e-06 	1.96278e-06 30.0006 	-5.42333e-06 	1.96278e-06 30.0003 	-1.32359e-06 	2.20767e-06 30.0006 	-5.38932e-06 	1.96431e-06 30.0006 	-5.38932e-06 	1.96431e-06 30.0006 	-5.38933e-06 	1.96431e-06 30.0006 	-5.38933e-06 	1.96431e-06 30.0003 	-1.3118e-06 	2.22556e-06 30.0006 	-5.3601e-06 	1.9569e-06 30.0006 	-5.3601e-06 	1.9569e-06 30.0006 	-5.36011e-06 	1.9569e-06 30.0006 	-5.36011e-06 	1.95691e-06 30.0003 	-1.47051e-07 	1.96618e-06 30.0005 	-5.33558e-06 	1.9411e-06 30.0005 	-5.33558e-06 	1.9411e-06 30.0005 	-5.33559e-06 	1.9411e-06 30.0005 	-5.33559e-06 	1.9411e-06 30.0003 	-1.48277e-07 	1.96058e-06 30.0005 	-5.31554e-06 	1.91791e-06 30.0005 	-5.31554e-06 	1.91791e-06 30.0005 	-5.31554e-06 	1.91791e-06 30.0005 	-5.31555e-06 	1.91791e-06 30.0003 	-1.49474e-07 	1.94425e-06 30.0005 	-5.2999e-06 	1.88797e-06 30.0005 	-5.2999e-06 	1.88797e-06 30.0005 	-5.2999e-06 	1.88797e-06 30.0005 	-5.29991e-06 	1.88798e-06 30.0003 	-1.30916e-06 	2.17901e-06 30.0005 	-5.28851e-06 	1.85187e-06 30.0005 	-5.28852e-06 	1.85187e-06 30.0005 	-5.28852e-06 	1.85187e-06 30.0005 	-5.28852e-06 	1.85187e-06 30.0003 	-1.51779e-07 	1.8823e-06 30.0005 	-5.28119e-06 	1.81005e-06 30.0005 	-5.28119e-06 	1.81005e-06 30.0005 	-5.2812e-06 	1.81005e-06 30.0005 	-5.2812e-06 	1.81005e-06 30.0003 	-1.5288e-07 	1.83818e-06 30.0005 	-5.27769e-06 	1.76312e-06 30.0005 	-5.2777e-06 	1.76312e-06 30.0005 	-5.2777e-06 	1.76312e-06 30.0005 	-5.2777e-06 	1.76313e-06 30.0003 	-1.34832e-06 	2.04409e-06 30.0005 	-5.27781e-06 	1.71158e-06 30.0005 	-5.27782e-06 	1.71158e-06 30.0005 	-5.27782e-06 	1.71158e-06 30.0005 	-5.27782e-06 	1.71159e-06 30.0003 	-1.36837e-06 	1.98425e-06 30.0005 	-5.28135e-06 	1.65595e-06 30.0005 	-5.28136e-06 	1.65595e-06 30.0005 	-5.28136e-06 	1.65595e-06 30.0005 	-5.28136e-06 	1.65595e-06 30.0002 	-1.56037e-07 	1.66281e-06 30.0005 	-5.28811e-06 	1.59663e-06 30.0005 	-5.28812e-06 	1.59663e-06 30.0005 	-5.28812e-06 	1.59664e-06 30.0005 	-5.28812e-06 	1.59664e-06 30.0002 	-1.57077e-07 	1.59256e-06 30.0004 	-5.29803e-06 	1.53411e-06 30.0004 	-5.29803e-06 	1.53411e-06 30.0004 	-5.29804e-06 	1.53411e-06 30.0004 	-5.29804e-06 	1.53411e-06 30.0002 	-1.58138e-07 	1.5177e-06 30.0004 	-5.31094e-06 	1.46885e-06 30.0004 	-5.31094e-06 	1.46885e-06 30.0004 	-5.31094e-06 	1.46885e-06 30.0004 	-5.31094e-06 	1.46885e-06 30.0002 	-1.47999e-06 	1.69063e-06 30.0004 	-5.32644e-06 	1.40139e-06 30.0004 	-5.32645e-06 	1.40139e-06 30.0004 	-5.32645e-06 	1.40139e-06 30.0004 	-5.32645e-06 	1.40139e-06 30.0002 	-1.5145e-06 	1.60714e-06 30.0004 	-5.34432e-06 	1.33214e-06 30.0004 	-5.34433e-06 	1.33214e-06 30.0004 	-5.34433e-06 	1.33214e-06 30.0004 	-5.34433e-06 	1.33214e-06 30.0002 	-1.61354e-07 	1.27187e-06 30.0004 	-5.36432e-06 	1.26143e-06 30.0004 	-5.36433e-06 	1.26143e-06 30.0004 	-5.36433e-06 	1.26143e-06 30.0004 	-5.36433e-06 	1.26143e-06 30.0002 	-1.58983e-06 	1.43251e-06 30.0004 	-5.38612e-06 	1.18976e-06 30.0004 	-5.38612e-06 	1.18976e-06 30.0004 	-5.38613e-06 	1.18976e-06 30.0004 	-5.38613e-06 	1.18976e-06 30.0002 	-1.63031e-06 	1.34243e-06 30.0004 	-5.40972e-06 	1.11742e-06 30.0004 	-5.40972e-06 	1.11742e-06 30.0004 	-5.40973e-06 	1.11742e-06 30.0004 	-5.40973e-06 	1.11743e-06 30.0002 	-1.64363e-07 	1.00608e-06 30.0004 	-5.43489e-06 	1.04475e-06 30.0004 	-5.43489e-06 	1.04475e-06 30.0004 	-5.43489e-06 	1.04475e-06 30.0004 	-5.4349e-06 	1.04475e-06 30.0002 	-1.65317e-07 	9.15612e-07 30.0004 	-5.46051e-06 	9.7222e-07 30.0004 	-5.46051e-06 	9.72221e-07 30.0004 	-5.46052e-06 	9.72221e-07 30.0004 	-5.46052e-06 	9.72221e-07 30.0002 	-1.66216e-07 	8.24989e-07 30.0004 	-5.48652e-06 	8.99442e-07 30.0004 	-5.48653e-06 	8.99442e-07 30.0004 	-5.48653e-06 	8.99443e-07 30.0004 	-5.48653e-06 	8.99443e-07 30.0002 	-1.8072e-06 	9.75439e-07 30.0004 	-5.51328e-06 	8.25911e-07 30.0004 	-5.51328e-06 	8.25911e-07 30.0004 	-5.51329e-06 	8.25911e-07 30.0004 	-5.51329e-06 	8.25911e-07 30.0002 	-1.67905e-07 	6.43622e-07 30.0003 	-5.54302e-06 	7.51952e-07 30.0003 	-5.54303e-06 	7.51952e-07 30.0003 	-5.54303e-06 	7.51952e-07 30.0003 	-5.54303e-06 	7.51953e-07 30.0002 	-1.68738e-07 	5.52627e-07 30.0003 	-5.57748e-06 	6.77411e-07 30.0003 	-5.57748e-06 	6.77411e-07 30.0003 	-5.57748e-06 	6.77411e-07 30.0003 	-5.57749e-06 	6.77411e-07 30.0002 	-1.95555e-06 	7.01331e-07 30.0003 	-5.61431e-06 	6.04341e-07 30.0003 	-5.61431e-06 	6.04342e-07 30.0003 	-5.61431e-06 	6.04342e-07 30.0003 	-5.61431e-06 	6.04342e-07 30.0002 	-2.00774e-06 	6.117e-07 30.0003 	-5.65044e-06 	5.34635e-07 30.0003 	-5.65045e-06 	5.34635e-07 30.0003 	-5.65045e-06 	5.34635e-07 30.0003 	-5.65045e-06 	5.34635e-07 30.0002 	-1.71224e-07 	2.80927e-07 30.0003 	-5.68155e-06 	4.67615e-07 30.0003 	-5.68155e-06 	4.67616e-07 30.0003 	-5.68156e-06 	4.67616e-07 30.0003 	-5.68156e-06 	4.67616e-07 30.0002 	-1.72053e-07 	1.97313e-07 30.0003 	-5.70996e-06 	4.03175e-07 30.0003 	-5.70996e-06 	4.03175e-07 30.0003 	-5.70996e-06 	4.03176e-07 30.0003 	-5.70996e-06 	4.03176e-07 30.0002 	-1.72846e-07 	1.16383e-07 30.0003 	-5.73811e-06 	3.39212e-07 30.0003 	-5.73811e-06 	3.39212e-07 30.0003 	-5.73811e-06 	3.39212e-07 30.0003 	-5.73811e-06 	3.39212e-07 30.0002 	-2.201e-06 	2.74098e-07 30.0003 	-5.76607e-06 	2.75243e-07 30.0003 	-5.76607e-06 	2.75243e-07 30.0003 	-5.76607e-06 	2.75243e-07 30.0003 	-5.76607e-06 	2.75243e-07 30.0002 	-2.24793e-06 	1.96355e-07 30.0003 	-5.79288e-06 	2.10765e-07 30.0003 	-5.79288e-06 	2.10765e-07 30.0003 	-5.79288e-06 	2.10765e-07 30.0003 	-5.79289e-06 	2.10765e-07 30.0002 	-1.75032e-07 	-1.09162e-07 30.0003 	-5.82093e-06 	1.48768e-07 30.0003 	-5.82093e-06 	1.48768e-07 30.0003 	-5.82093e-06 	1.48768e-07 30.0003 	-5.82093e-06 	1.48768e-07 30.0002 	-2.34173e-06 	4.46719e-08 30.0003 	-5.85018e-06 	8.9974e-08 30.0003 	-5.85018e-06 	8.9974e-08 30.0003 	-5.85018e-06 	8.9974e-08 30.0003 	-5.85018e-06 	8.9974e-08 30.0002 	-2.38904e-06 	-2.91035e-08 30.0003 	-5.8806e-06 	3.48002e-08 30.0003 	-5.8806e-06 	3.48002e-08 30.0003 	-5.8806e-06 	3.48002e-08 30.0003 	-5.8806e-06 	3.48002e-08 30.0002 	-1.77057e-07 	-3.30788e-07 30.0003 	-5.91246e-06 	-1.70736e-08 30.0003 	-5.91246e-06 	-1.70736e-08 30.0003 	-5.91246e-06 	-1.70736e-08 30.0003 	-5.91246e-06 	-1.70736e-08 30.0002 	-1.77703e-07 	-4.01823e-07 30.0003 	-5.94556e-06 	-6.90488e-08 30.0003 	-5.94556e-06 	-6.90488e-08 30.0003 	-5.94556e-06 	-6.90488e-08 30.0003 	-5.94556e-06 	-6.90488e-08 30.0002 	-1.78304e-07 	-4.67094e-07 30.0003 	-5.9775e-06 	-1.23311e-07 30.0003 	-5.9775e-06 	-1.23311e-07 30.0003 	-5.9775e-06 	-1.23311e-07 30.0003 	-5.9775e-06 	-1.23311e-07 30.0002 	-2.58057e-06 	-3.01383e-07 30.0003 	-6.00526e-06 	-1.77955e-07 30.0003 	-6.00526e-06 	-1.77955e-07 30.0003 	-6.00525e-06 	-1.77955e-07 30.0003 	-6.00525e-06 	-1.77955e-07 30.0002 	-1.79477e-07 	-5.84905e-07 30.0003 	-6.0294e-06 	-2.29209e-07 30.0003 	-6.0294e-06 	-2.29209e-07 30.0003 	-6.0294e-06 	-2.29209e-07 30.0003 	-6.0294e-06 	-2.29209e-07 30.0002 	-1.80083e-07 	-6.42167e-07 30.0003 	-6.05263e-06 	-2.7617e-07 30.0003 	-6.05263e-06 	-2.7617e-07 30.0003 	-6.05263e-06 	-2.7617e-07 30.0003 	-6.05263e-06 	-2.7617e-07 30.0002 	-2.70861e-06 	-4.78988e-07 30.0003 	-6.07646e-06 	-3.19654e-07 30.0003 	-6.07646e-06 	-3.19654e-07 30.0003 	-6.07646e-06 	-3.19654e-07 30.0003 	-6.07646e-06 	-3.19654e-07 30.0002 	-2.74965e-06 	-5.34034e-07 30.0003 	-6.10079e-06 	-3.6118e-07 30.0003 	-6.10079e-06 	-3.6118e-07 30.0003 	-6.10079e-06 	-3.6118e-07 30.0003 	-6.10079e-06 	-3.6118e-07 30.0002 	-1.8182e-07 	-8.03807e-07 30.0003 	-6.12483e-06 	-4.01375e-07 30.0003 	-6.12483e-06 	-4.01375e-07 30.0003 	-6.12483e-06 	-4.01375e-07 30.0003 	-6.12483e-06 	-4.01375e-07 30.0001 	-1.82362e-07 	-8.53125e-07 30.0003 	-6.1482e-06 	-4.40369e-07 30.0003 	-6.1482e-06 	-4.40369e-07 30.0003 	-6.1482e-06 	-4.40369e-07 30.0003 	-6.1482e-06 	-4.40369e-07 30.0001 	-1.82883e-07 	-9.00334e-07 30.0003 	-6.17083e-06 	-4.77992e-07 30.0003 	-6.17083e-06 	-4.77992e-07 30.0003 	-6.17083e-06 	-4.77992e-07 30.0003 	-6.17083e-06 	-4.77992e-07 30.0001 	-2.90912e-06 	-7.31468e-07 30.0003 	-6.19259e-06 	-5.1421e-07 30.0003 	-6.19259e-06 	-5.1421e-07 30.0003 	-6.19259e-06 	-5.1421e-07 30.0003 	-6.19259e-06 	-5.1421e-07 30.0001 	-2.94699e-06 	-7.75595e-07 30.0003 	-6.21358e-06 	-5.48828e-07 30.0003 	-6.21358e-06 	-5.48828e-07 30.0003 	-6.21358e-06 	-5.48828e-07 30.0003 	-6.21358e-06 	-5.48828e-07 30.0001 	-1.84398e-07 	-1.02954e-06 30.0003 	-6.23373e-06 	-5.82038e-07 30.0003 	-6.23373e-06 	-5.82038e-07 30.0003 	-6.23373e-06 	-5.82038e-07 30.0003 	-6.23372e-06 	-5.82037e-07 30.0001 	-3.02e-06 	-8.57484e-07 30.0003 	-6.25297e-06 	-6.13884e-07 30.0003 	-6.25297e-06 	-6.13883e-07 30.0003 	-6.25297e-06 	-6.13883e-07 30.0003 	-6.25297e-06 	-6.13883e-07 30.0001 	-3.0551e-06 	-8.95494e-07 30.0003 	-6.27146e-06 	-6.44412e-07 30.0003 	-6.27145e-06 	-6.44411e-07 30.0003 	-6.27145e-06 	-6.44411e-07 30.0003 	-6.27145e-06 	-6.44411e-07 30.0001 	-1.8582e-07 	-1.14086e-06 30.0003 	-6.28929e-06 	-6.73613e-07 30.0003 	-6.28929e-06 	-6.73613e-07 30.0003 	-6.28929e-06 	-6.73612e-07 30.0003 	-6.28929e-06 	-6.73612e-07 30.0001 	-1.86286e-07 	-1.17461e-06 30.0003 	-6.30629e-06 	-7.01431e-07 30.0003 	-6.30629e-06 	-7.01431e-07 30.0003 	-6.30629e-06 	-7.0143e-07 30.0003 	-6.30629e-06 	-7.0143e-07 30.0001 	-1.86729e-07 	-1.2067e-06 30.0003 	-6.32235e-06 	-7.27863e-07 30.0003 	-6.32235e-06 	-7.27863e-07 30.0003 	-6.32235e-06 	-7.27863e-07 30.0003 	-6.32235e-06 	-7.27863e-07 30.0001 	-3.18655e-06 	-1.03102e-06 30.0003 	-6.3376e-06 	-7.52977e-07 30.0003 	-6.33759e-06 	-7.52977e-07 30.0003 	-6.33759e-06 	-7.52977e-07 30.0003 	-6.33759e-06 	-7.52976e-07 30.0001 	-1.8758e-07 	-1.26598e-06 30.0003 	-6.35212e-06 	-7.76946e-07 30.0003 	-6.35212e-06 	-7.76945e-07 30.0003 	-6.35211e-06 	-7.76945e-07 30.0003 	-6.35211e-06 	-7.76945e-07 30.0001 	-1.88002e-07 	-1.29333e-06 30.0003 	-6.36591e-06 	-7.99817e-07 30.0003 	-6.36591e-06 	-7.99816e-07 30.0003 	-6.36591e-06 	-7.99816e-07 30.0003 	-6.36591e-06 	-7.99816e-07 30.0001 	-3.27594e-06 	-1.11607e-06 30.0003 	-6.37897e-06 	-8.21547e-07 30.0003 	-6.37897e-06 	-8.21547e-07 30.0003 	-6.37897e-06 	-8.21547e-07 30.0003 	-6.37897e-06 	-8.21547e-07 30.0001 	-3.30405e-06 	-1.14155e-06 30.0003 	-6.39135e-06 	-8.41982e-07 30.0003 	-6.39134e-06 	-8.41982e-07 30.0003 	-6.39134e-06 	-8.41982e-07 30.0003 	-6.39134e-06 	-8.41982e-07 30.0001 	-1.89203e-07 	-1.36688e-06 30.0003 	-6.40297e-06 	-8.61378e-07 30.0003 	-6.40297e-06 	-8.61378e-07 30.0003 	-6.40297e-06 	-8.61378e-07 30.0003 	-6.40297e-06 	-8.61377e-07 30.0001 	-1.89589e-07 	-1.38876e-06 30.0003 	-6.4139e-06 	-8.79818e-07 30.0003 	-6.4139e-06 	-8.79817e-07 30.0003 	-6.4139e-06 	-8.79817e-07 30.0003 	-6.4139e-06 	-8.79817e-07 30.0001 	-1.89964e-07 	-1.40941e-06 30.0003 	-6.42413e-06 	-8.97303e-07 30.0003 	-6.42413e-06 	-8.97302e-07 30.0003 	-6.42413e-06 	-8.97302e-07 30.0003 	-6.42412e-06 	-8.97302e-07 30.0001 	-3.40838e-06 	-1.23055e-06 30.0003 	-6.43368e-06 	-9.13891e-07 30.0003 	-6.43368e-06 	-9.13891e-07 30.0003 	-6.43368e-06 	-9.13891e-07 30.0003 	-6.43368e-06 	-9.1389e-07 30.0001 	-3.43252e-06 	-1.24988e-06 30.0003 	-6.44266e-06 	-9.29577e-07 30.0003 	-6.44266e-06 	-9.29576e-07 30.0003 	-6.44265e-06 	-9.29576e-07 30.0003 	-6.44265e-06 	-9.29576e-07 30.0001 	-1.91087e-07 	-1.46458e-06 30.0003 	-6.45099e-06 	-9.44424e-07 30.0003 	-6.45099e-06 	-9.44423e-07 30.0003 	-6.45099e-06 	-9.44423e-07 30.0003 	-6.45099e-06 	-9.44423e-07 30.0001 	-3.47864e-06 	-1.28537e-06 30.0003 	-6.45866e-06 	-9.5843e-07 30.0003 	-6.45866e-06 	-9.5843e-07 30.0003 	-6.45866e-06 	-9.5843e-07 30.0003 	-6.45866e-06 	-9.58429e-07 30.0001 	-3.5007e-06 	-1.30163e-06 30.0003 	-6.46574e-06 	-9.71727e-07 30.0003 	-6.46574e-06 	-9.71726e-07 30.0003 	-6.46574e-06 	-9.71726e-07 30.0003 	-6.46574e-06 	-9.71726e-07 30.