# vtk DataFile Version 2.0
track0
ASCII
DATASET POLYDATA
POINTS 15780 float
-1.001 -0.05 0.0011
-1.0008 -0.05 0.0011
-1.0006 -0.05 0.0011
-1.0004 -0.05 0.0011
-1.0002 -0.05 0.0011
-1 -0.05 0.0011
-0.9875 -0.05 0.0011
-0.975 -0.05 0.0011
-0.9625 -0.05 0.0011
-0.95 -0.05 0.0011
-0.9375 -0.05 0.00109999
-0.925 -0.05 0.00109999
-0.9125 -0.05 0.00109999
-0.9 -0.05 0.00109999
-0.8875 -0.05 0.00109999
-0.875 -0.05 0.00109999
-0.8625 -0.05 0.00109999
-0.85 -0.05 0.00109999
-0.8375 -0.05 0.00109998
-0.825 -0.0500001 0.00109998
-0.8125 -0.0500001 0.00109998
-0.8 -0.0500001 0.00109998
-0.7875 -0.0500001 0.00109998
-0.775 -0.0500001 0.00109998
-0.7625 -0.0500001 0.00109998
-0.75 -0.0500001 0.00109998
-0.7375 -0.0500001 0.00109997
-0.725 -0.0500001 0.00109997
-0.7125 -0.0500001 0.00109997
-0.7 -0.0500001 0.00109997
-0.6875 -0.0500001 0.00109997
-0.675 -0.0500001 0.00109997
-0.6625 -0.0500001 0.00109997
-0.65 -0.0500001 0.00109996
-0.6375 -0.0500001 0.00109996
-0.625 -0.0500001 0.00109996
-0.6125 -0.0500001 0.00109996
-0.6 -0.0500001 0.00109996
-0.5875 -0.0500001 0.00109996
-0.575 -0.0500001 0.00109996
-0.5625 -0.0500001 0.00109996
-0.55 -0.0500001 0.00109995
-0.5375 -0.0500001 0.00109995
-0.525 -0.0500001 0.00109995
-0.5125 -0.0500001 0.00109995
-0.5 -0.0500001 0.00109995
-0.4875 -0.0500001 0.00109995
-0.475 -0.0500001 0.00109995
-0.4625 -0.0500001 0.00109994
-0.45 -0.0500002 0.00109994
-0.4375 -0.0500002 0.00109994
-0.425 -0.0500002 0.00109994
-0.4125 -0.0500002 0.00109994
-0.4 -0.0500002 0.00109994
-0.3875 -0.0500002 0.00109994
-0.375 -0.0500002 0.00109994
-0.3625 -0.0500002 0.00109993
-0.35 -0.0500002 0.00109993
-0.3375 -0.0500002 0.00109993
-0.325 -0.0500002 0.00109993
-0.3125 -0.0500002 0.00109993
-0.3 -0.0500002 0.00109993
-0.2875 -0.0500002 0.00109993
-0.275 -0.0500002 0.00109993
-0.2625 -0.0500002 0.00109992
-0.25 -0.0500002 0.00109992
-0.2375 -0.0500002 0.00109992
-0.225 -0.0500002 0.00109992
-0.2125 -0.0500002 0.00109992
-0.2 -0.0500002 0.00109992
-0.1875 -0.0500002 0.00109992
-0.175 -0.0500002 0.00109992
-0.1625 -0.0500002 0.00109991
-0.15 -0.0500002 0.00109991
-0.1375 -0.0500002 0.00109991
-0.125 -0.0500002 0.00109991
-0.1125 -0.0500002 0.00109991
-0.1 -0.0500002 0.00109991
-0.0875 -0.0500002 0.00109991
-0.075 -0.0500002 0.00109991
-0.0625 -0.0500002 0.00109991
-0.05 -0.0500003 0.00109991
-0.0375 -0.0500003 0.0010999
-0.025 -0.0500003 0.0010999
-0.0125 -0.0500003 0.0010999
2.10607e-13 -0.0500003 0.0010999
0.0125 -0.0500003 0.0010999
0.025 -0.0500003 0.0010999
0.0375 -0.0500003 0.0010999
0.05 -0.0500003 0.0010999
0.0625 -0.0500003 0.0010999
0.075 -0.0500003 0.0010999
0.0875 -0.0500003 0.0010999
0.1 -0.0500003 0.00109989
0.1125 -0.0500003 0.00109989
0.125 -0.0500003 0.00109989
0.1375 -0.0500003 0.00109989
0.15 -0.0500003 0.00109989
0.1625 -0.0500003 0.00109989
0.175 -0.0500003 0.00109989
0.1875 -0.0500003 0.00109989
0.2 -0.0500003 0.00109989
0.2125 -0.0500003 0.00109989
0.225 -0.0500003 0.00109989
0.2375 -0.0500003 0.00109989
0.25 -0.0500003 0.00109989
0.2625 -0.0500003 0.00109988
0.275 -0.0500003 0.00109988
0.2875 -0.0500003 0.00109988
0.3 -0.0500003 0.00109988
0.3125 -0.0500003 0.00109988
0.325 -0.0500003 0.00109988
0.3375 -0.0500003 0.00109988
0.35 -0.0500003 0.00109988
0.3625 -0.0500003 0.00109988
0.375 -0.0500003 0.00109988
0.3875 -0.0500003 0.00109988
0.4 -0.0500004 0.00109988
0.4125 -0.0500004 0.00109988
0.425 -0.0500004 0.00109988
0.4375 -0.0500004 0.00109988
0.45 -0.0500004 0.00109988
0.4625 -0.0500004 0.00109988
0.475 -0.0500004 0.00109988
0.4875 -0.0500004 0.00109988
0.5 -0.0500004 0.00109988
0.5125 -0.0500004 0.00109988
0.525 -0.0500004 0.00109988
0.5375 -0.0500004 0.00109988
0.55 -0.0500004 0.00109988
0.5625 -0.0500004 0.00109988
0.575 -0.0500004 0.00109987
0.5875 -0.0500004 0.00109987
0.6 -0.0500004 0.00109987
0.6125 -0.0500004 0.00109987
0.625 -0.0500004 0.00109987
0.6375 -0.0500004 0.00109987
0.65 -0.0500004 0.00109987
0.6625 -0.0500004 0.00109987
0.675 -0.0500004 0.00109987
0.6875 -0.0500004 0.00109987
0.7 -0.0500004 0.00109987
0.7125 -0.0500004 0.00109987
0.725 -0.0500004 0.00109987
0.7375 -0.0500004 0.00109987
0.75 -0.0500004 0.00109987
0.7625 -0.0500004 0.00109987
0.775 -0.0500004 0.00109987
0.7875 -0.0500004 0.00109987
0.8 -0.0500004 0.00109987
0.8125 -0.0500004 0.00109987
0.825 -0.0500004 0.00109987
0.8375 -0.0500004 0.00109987
0.85 -0.0500004 0.00109987
0.8625 -0.0500004 0.00109987
0.875 -0.0500004 0.00109987
0.8875 -0.0500004 0.00109987
0.9 -0.0500004 0.00109987
0.9125 -0.0500005 0.00109988
0.925 -0.0500005 0.00109988
0.9375 -0.0500005 0.00109988
0.95 -0.0500005 0.00109988
0.9625 -0.0500005 0.00109988
0.975 -0.0500005 0.00109988
0.9875 -0.0500005 0.00109988
1 -0.0500005 0.00109988
1.0125 -0.0500005 0.00109988
1.025 -0.0500005 0.00109988
1.0375 -0.0500005 0.00109988
1.05 -0.0500005 0.00109988
1.0625 -0.0500005 0.00109988
1.075 -0.0500005 0.00109988
1.0875 -0.0500005 0.00109988
1.1 -0.0500005 0.00109988
1.1125 -0.0500005 0.00109988
1.125 -0.0500005 0.00109988
1.1375 -0.0500005 0.00109988
1.15 -0.0500005 0.00109988
1.1625 -0.0500005 0.00109988
1.175 -0.0500005 0.00109988
1.1875 -0.0500005 0.00109988
1.2 -0.0500005 0.00109988
1.2125 -0.0500005 0.00109988
1.225 -0.0500005 0.00109988
1.2375 -0.0500005 0.00109989
1.25 -0.0500005 0.00109989
1.2625 -0.0500005 0.00109989
1.275 -0.0500005 0.00109989
1.2875 -0.0500005 0.00109989
1.3 -0.0500005 0.00109989
1.3125 -0.0500005 0.00109989
1.325 -0.0500005 0.00109989
1.3375 -0.0500005 0.00109989
1.35 -0.0500005 0.00109989
1.3625 -0.0500005 0.00109989
1.375 -0.0500005 0.00109989
1.3875 -0.0500005 0.00109989
1.4 -0.0500005 0.00109989
1.4125 -0.0500005 0.00109989
1.425 -0.0500005 0.00109989
1.4375 -0.0500005 0.0010999
1.45 -0.0500005 0.0010999
1.4625 -0.0500005 0.0010999
1.475 -0.0500005 0.0010999
1.4875 -0.0500005 0.0010999
1.5 -0.0500006 0.0010999
1.5125 -0.0500006 0.0010999
1.525 -0.0500006 0.0010999
1.5375 -0.0500006 0.0010999
1.55 -0.0500006 0.0010999
1.5625 -0.0500006 0.0010999
1.575 -0.0500006 0.0010999
1.5875 -0.0500006 0.0010999
1.6 -0.0500006 0.0010999
1.6125 -0.0500006 0.00109991
1.625 -0.0500006 0.00109991
1.6375 -0.0500006 0.00109991
1.65 -0.0500006 0.00109991
1.6625 -0.0500006 0.00109991
1.675 -0.0500006 0.00109991
1.6875 -0.0500006 0.00109991
1.7 -0.0500006 0.00109991
1.7125 -0.0500006 0.00109991
1.725 -0.0500006 0.00109991
1.7375 -0.0500006 0.00109991
1.75 -0.0500006 0.00109991
1.7625 -0.0500006 0.00109992
1.775 -0.0500006 0.00109992
1.7875 -0.0500006 0.00109992
1.8 -0.0500006 0.00109992
1.8125 -0.0500006 0.00109992
1.825 -0.0500006 0.00109992
1.8375 -0.0500006 0.00109992
1.85 -0.0500006 0.00109992
1.8625 -0.0500006 0.00109992
1.875 -0.0500006 0.00109992
1.8875 -0.0500006 0.00109992
1.9 -0.0500006 0.00109992
1.9125 -0.0500006 0.00109993
1.925 -0.0500006 0.00109993
1.9375 -0.0500006 0.00109993
1.95 -0.0500006 0.00109993
1.9625 -0.0500006 0.00109993
1.975 -0.0500006 0.00109993
1.9875 -0.0500006 0.00109993
2 -0.0500006 0.00109993
2.0125 -0.0500006 0.00109993
2.025 -0.0500006 0.00109993
2.0375 -0.0500006 0.00109993
2.05 -0.0500006 0.00109993
2.0625 -0.0500006 0.00109994
2.075 -0.0500006 0.00109994
2.0875 -0.0500006 0.00109994
2.1 -0.0500006 0.00109994
2.1125 -0.0500006 0.00109994
2.125 -0.0500006 0.00109994
2.1375 -0.0500006 0.00109994
2.15 -0.0500006 0.00109994
2.1625 -0.0500006 0.00109994
2.175 -0.0500007 0.00109994
2.1875 -0.0500007 0.00109994
2.2 -0.0500007 0.00109994
2.2125 -0.0500007 0.00109994
2.225 -0.0500007 0.00109995
2.2375 -0.0500007 0.00109995
2.25 -0.0500007 0.00109995
2.2625 -0.0500007 0.00109995
2.275 -0.0500007 0.00109995
2.2875 -0.0500007 0.00109995
2.3 -0.0500007 0.00109995
2.3125 -0.0500007 0.00109995
2.325 -0.0500007 0.00109995
2.3375 -0.0500007 0.00109995
2.35 -0.0500007 0.00109995
2.3625 -0.0500007 0.00109995
2.375 -0.0500007 0.00109995
2.3875 -0.0500007 0.00109996
2.4 -0.0500007 0.00109996
2.4125 -0.0500007 0.00109996
2.425 -0.0500007 0.00109996
2.4375 -0.0500007 0.00109996
2.45 -0.0500007 0.00109996
2.4625 -0.0500007 0.00109996
2.475 -0.0500007 0.00109996
2.4875 -0.0500007 0.00109996
2.5 -0.0500007 0.00109996
2.5125 -0.0500007 0.00109996
2.525 -0.0500007 0.00109996
2.5375 -0.0500007 0.00109996
2.55 -0.0500007 0.00109996
2.5625 -0.0500007 0.00109997
2.575 -0.0500007 0.00109997
2.5875 -0.0500007 0.00109997
2.6 -0.0500007 0.00109997
2.6125 -0.0500007 0.00109997
2.625 -0.0500007 0.00109997
2.6375 -0.0500007 0.00109997
2.65 -0.0500007 0.00109997
2.6625 -0.0500007 0.00109997
2.675 -0.0500007 0.00109997
2.6875 -0.0500007 0.00109997
2.7 -0.0500007 0.00109997
2.7125 -0.0500007 0.00109997
2.725 -0.0500007 0.00109997
2.7375 -0.0500007 0.00109997
2.75 -0.0500007 0.00109997
2.7625 -0.0500007 0.00109998
2.775 -0.0500007 0.00109998
2.7875 -0.0500007 0.00109998
2.8 -0.0500007 0.00109998
2.8125 -0.0500007 0.00109998
2.825 -0.0500007 0.00109998
2.8375 -0.0500007 0.00109998
2.85 -0.0500007 0.00109998
2.8625 -0.0500008 0.00109998
2.875 -0.0500008 0.00109998
2.8875 -0.0500008 0.00109998
2.9 -0.0500008 0.00109998
2.9125 -0.0500008 0.00109998
2.925 -0.0500008 0.00109998
2.9375 -0.0500008 0.00109998
2.95 -0.0500008 0.00109998
2.9625 -0.0500008 0.00109998
2.975 -0.0500008 0.00109998
2.9875 -0.0500008 0.00109998
3 -0.0500008 0.00109998
3.0125 -0.0500008 0.00109999
3.025 -0.0500008 0.00109999
3.0375 -0.0500008 0.00109999
3.05 -0.0500008 0.00109999
3.0625 -0.0500008 0.00109999
3.075 -0.0500008 0.00109999
3.0875 -0.0500008 0.00109999
3.1 -0.0500008 0.00109999
3.1125 -0.0500008 0.00109999
3.125 -0.0500008 0.00109999
3.1375 -0.0500008 0.00109999
3.15 -0.0500008 0.00109999
3.1625 -0.0500008 0.00109999
3.175 -0.0500008 0.00109999
3.1875 -0.0500008 0.00109999
3.2 -0.0500008 0.00109999
3.2125 -0.0500008 0.00109999
3.225 -0.0500008 0.00109999
3.2375 -0.0500008 0.00109999
3.25 -0.0500008 0.00109999
3.2625 -0.0500008 0.00109999
3.275 -0.0500008 0.00109999
3.2875 -0.0500008 0.00109999
3.3 -0.0500008 0.00109999
3.3125 -0.0500008 0.00109999
3.325 -0.0500008 0.00109999
3.3375 -0.0500008 0.00109999
3.35 -0.0500008 0.0011
3.3625 -0.0500008 0.0011
[...]
POINT_DATA 15780
 FIELD attributes 2
p 1 15780 float
-0.031098 -0.0311141 -0.0311301 -0.0311462 -0.0311622 -0.0311782 -0.0321097 -0.0330335 -0.0339572 -0.034881 -0.0359014 -0.0369653 -0.0380316 -0.039098 -0.0401643 -0.041184 -0.0421675 -0.0431323 -0.0440971 -0.0450619 -0.0459751 -0.0468729 -0.0477754 -0.048678 -0.0495806 -0.0504773 -0.0513779 -0.0522794 -0.0531809 -0.0540824 -0.0549833 -0.0558908 -0.0567987 -0.0577067 -0.0586146 -0.0595221 -0.0604217 -0.0613192 -0.0622167 -0.0631142 -0.0640088 -0.0648879 -0.065765 -0.0666422 -0.0675193 -0.0683944 -0.0692518 -0.0701071 -0.0709624 -0.0718177 -0.0726711 -0.0735057 -0.0743378 -0.0751698 -0.0760019 -0.0768316 -0.0776398 -0.078445 -0.0792502 -0.0800553 -0.0808577 -0.0816358 -0.0824101 -0.0831843 -0.0839586 -0.0847293 -0.0854734 -0.0862134 -0.0869533 -0.0876933 -0.0884293 -0.0891367 -0.0898392 -0.0905418 -0.0912443 -0.0919423 -0.0926096 -0.0932718 -0.0939339 -0.0945961 -0.0952533 -0.0958777 -0.0964966 -0.0971154 -0.0977343 -0.0983476 -0.0989266 -0.0994998 -0.100073 -0.100646 -0.101213 -0.101746 -0.102272 -0.102798 -0.103325 -0.103845 -0.104329 -0.104807 -0.105285 -0.105762 -0.106234 -0.106668 -0.107095 -0.107521 -0.107948 -0.108367 -0.108748 -0.109121 -0.109494 -0.109866 -0.110232 -0.110556 -0.110873 -0.11119 -0.111507 -0.111817 -0.112085 -0.112345 -0.112605 -0.112865 -0.113118 -0.113328 -0.113531 -0.113733 -0.113936 -0.114131 -0.114283 -0.114427 -0.114571 -0.114715 -0.114851 -0.114944 -0.11503 -0.115115 -0.1152 -0.115278 -0.115314 -0.115343 -0.115372 -0.115401 -0.115422 -0.115404 -0.115378 -0.115353 -0.115327 -0.115295 -0.115224 -0.115146 -0.115069 -0.114991 -0.114906 -0.114783 -0.114654 -0.114524 -0.114395 -0.114258 -0.114084 -0.113903 -0.113722 -0.113541 -0.113352 -0.113128 -0.112898 -0.112667 -0.112437 -0.112199 -0.111929 -0.111652 -0.111375 -0.111099 -0.110815 -0.110501 -0.11018 -0.109859 -0.109539 -0.109211 -0.108855 -0.108493 -0.10813 -0.107768 -0.107399 -0.107002 -0.1066 -0.106198 -0.105796 -0.105389 -0.104955 -0.104517 -0.104079 -0.103641 -0.103197 -0.10273 -0.10226 -0.101789 -0.101319 -0.100844 -0.10035 -0.0998517 -0.0993537 -0.0988556 -0.0983534 -0.0978345 -0.0973121 -0.0967897 -0.0962672 -0.0957409 -0.0952 -0.0946556 -0.0941112 -0.0935669 -0.0930188 -0.0924579 -0.0918941 -0.0913303 -0.0907665 -0.0901996 -0.0896219 -0.0890417 -0.0884615 -0.0878814 -0.0872982 -0.0867068 -0.0861134 -0.08552 -0.0849266 -0.0843309 -0.0837291 -0.0831255 -0.082522 -0.0819185 -0.0813129 -0.0807032 -0.0800924 -0.0794816 -0.0788708 -0.0782585 -0.0776441 -0.0770287 -0.0764133 -0.0757979 -0.0751812 -0.0745642 -0.0739468 -0.0733294 -0.072712 -0.0720938 -0.0714771 -0.0708601 -0.0702431 -0.0696261 -0.0690085 -0.068394 -0.0677796 -0.0671653 -0.066551 -0.0659366 -0.0653265 -0.0647168 -0.0641071 -0.0634974 -0.0628878 -0.0622839 -0.0616806 -0.0610774 -0.0604742 -0.0598715 -0.0592756 -0.0586806 -0.0580856 -0.0574906 -0.0568962 -0.0563097 -0.0557244 -0.0551392 -0.0545539 -0.0539697 -0.0533942 -0.0528201 -0.052246 -0.0516718 -0.0510988 -0.0505354 -0.0499737 -0.0494119 -0.0488501 -0.0482898 -0.0477397 -0.0471914 -0.046643 -0.0460947 -0.0455478 -0.0450118 -0.0444778 -0.0439438 -0.0434097 -0.0428775 -0.0423566 -0.0418376 -0.0413187 -0.0407997 -0.0402826 -0.0397772 -0.039274 -0.0387708 -0.0382676 -0.0377664 -0.0372773 -0.0367903 -0.0363034 -0.0358164 -0.0353314 -0.0348588 -0.0343884 -0.0339181 -0.0334477 -0.0329796 -0.0325238 -0.0320703 -0.0316169 -0.0311634 -0.0307121 -0.0302733 -0.0298369 -0.0294005 -0.0289641 -0.02853 -0.0281083 -0.0276889 -0.0272696 -0.0268503 -0.0264333 -0.0260287 -0.0256264 -0.0252242 -0.024822 -0.0244221 -0.0240346 -0.0236495 -0.0232644 -0.0228793 -0.0224965 -0.0221261 -0.0217583 -0.0213904 -0.0210225 -0.0206571 -0.0203038 -0.0199531 -0.0196024 -0.0192516 -0.0189032 -0.0185666 -0.0182325 -0.0178985 -0.0175645 -0.0172329 -0.0169126 -0.0165947 -0.0162768 -0.0159589 -0.0156435 -0.0153389 -0.0150366 -0.0147342 -0.0144319 -0.0141321 -0.0138427 -0.0135557 -0.0132686 -0.0129816 -0.0126971 -0.0124228 -0.0121507 -0.0118786 -0.0116065 -0.0113367 -0.011077 -0.0108195 -0.0105621 -0.0103046 -0.0100494 -0.00980411 -0.00956096 -0.0093178 -0.00907464 -0.00883368 -0.0086022 -0.00837277 -0.00814333 -0.0079139 -0.00768655 -0.00746819 -0.00725194 -0.00703569 -0.00681944 -0.00660527 -0.00639974 -0.00619624 -0.00599274 -0.00578924 -0.00558774 -0.00539452 -0.0052034 -0.00501229 -0.00482117 -0.00463216 -0.00445111 -0.00427218 -0.00409324 -0.00391431 -0.00373742 -0.00356819 -0.003401 -0.00323382 -0.00306664 -0.00290151 -0.00274345 -0.00258728 -0.0024311 -0.00227492 -0.00212078 -0.00197327 -0.00182729 -0.0016813 -0.00153532 -0.00139112 -0.00125316 -0.0011168 -0.000980439 -0.00084408 -0.000709495 -0.00058082 -0.000453753 -0.000326687 -0.000199621 -7.41994e-05 4.54698e-05 0.000163524 0.000281577 0.000399631 0.000516067 0.000627054 0.000736456 0.000845857 0.000955259 0.00106304 0.00116577 0.00126696 0.00136815 0.00146935 0.00156895 0.00166384 0.00175727 0.00185071 0.00194414 0.00203606 0.0021236 0.00220971 0.00229581 0.00238192 0.00246655 0.00254706 0.00262623 0.00270541 0.00278458 0.00286236 0.0029363 0.00300892 0.00308155 0.00315417 0.00322541 0.00329311 0.00335956 0.00342601 0.00349246 0.00355762 0.00361947 0.00368011 0.00374075 0.00380139 0.00386075 0.00391707 0.00397225 0.00402743 0.00408261 0.00413658 0.00418778 0.00423784 0.0042879 0.00433795 0.00438681 0.00443312 0.00447835 0.00452359 0.00456882 0.00461293 0.0046547 0.00469541 0.00473611 0.00477682 0.00481641 0.00485387 0.00489034 0.00492681 0.00496327 0.00499869 0.00503219 0.0050647 0.00509721 0.00512972 0.00516119 0.00519093 0.00521974 0.00524855 0.00527737 0.00530522 0.00533149 0.00535686 0.00538223 0.0054076 0.005432 0.005455 0.00547716 0.00549933 0.00552149 0.00554274 0.00556278 0.00558196 0.00560115 0.00562034 0.00563862 0.00565585 0.00567228 0.00568872 0.00570516 0.00572075 0.00573543 0.00574932 0.00576321 0.0057771 0.00579017 0.00580243 0.00581397 0.00582552 0.00583706 0.00584783 0.00585793 0.00586731 0.00587669 0.00588607 0.00589467 0.00590274 0.00591014 0.00591753 0.00592492 0.0059316 0.00593785 0.00594342 0.005949 0.00595457 0.00595943 0.00596397 0.00596789 0.00597181 0.00597573 0.00597897 0.00598202 0.00598443 0.00598684 0.00598925 0.00599099 0.00599263 0.00599367 0.00599471 0.00599576 0.00599617 0.00599657 0.00599637 0.00599618 0.00599598 0.00599515 0.00599439 0.00599309 0.00599178 0.00599048 0.00598859 0.00598685 0.00598456 0.00598227 0.00597998 0.00597711 0.00597446 0.00597129 0.00596812 0.00596495 0.00596123 0.00595781 0.00595387 0.00594992 0.00594598 0.00594149 0.00593736 0.00593276 0.00592815 0.00592354 0.00591841 0.00591373 0.00590855 0.00590338 0.0058982 0.00589251 0.00588733 0.00588168 0.00587604 0.00587039 0.00586426 0.00585869 0.00585266 0.00584663 0.0058406 0.00583409 0.00582819 0.00582186 0.00581553 0.0058092 0.00580242 0.00579631 0.00578976 0.00578321 0.00577666 0.00576966 0.00576339 0.0057567 0.00575001 0.00574332 0.0057362 0.00572986 0.0057231 0.00571635 0.00570959 0.00570241 0.00569606 0.00568931 0.00568256 0.0056758 0.00566864 0.00566236 0.00565568 0.005649 0.00564232 0.00563523 0.00562908 0.00562254 0.00561599 0.00560945 0.00560251 0.00559656 0.00559021 0.00558387 0.00557753 0.00557079 0.00556509 0.00555901 0.00555292 0.00554684 0.00554037 0.00553497 0.0055292 0.00552343 0.00551766 0.00551151 0.00550648 0.00550107 0.00549566 0.00549025 0.00548446 0.00547983 0.00547482 0.00546981 0.0054648 0.00545943 0.00545523 0.00545065 0.00544606 0.00544147 0.00543651 0.00543273 0.00542857 0.0054244 0.00542024 0.0054157 0.00541231 0.0054085 0.0054047 0.00540089 0.00539668 0.00539349 0.00538985 0.00538621 0.00538257 0.00537851 0.0053751 0.00537119 0.00536727 0.00536336 0.00535896 0.00535406 0.00534834 0.00534261 0.00533689 0.00533038 0.00532161 0.0053124 0.0053032 0.005294 0.0052843 0.00525818 0.00522653 0.00519489 0.00516324 0.0051267 0.00511523 0.00511788 0.00512054 0.0051232 0.00514882 0.00523243 0.00530847 0.00538785 0.00545082 0.00549644 0.00548942 0.00548559 0.00548176 0.00547795 0.00547643 0.00550331 0.005531 0.00555868 0.00557836 0.00559933 0.00561327 0.00563212 0.005651 0.00566988 0.00568421 0.0057471 0.00581211 0.00587713 0.00594214 0.00599865 0.00609009 0.00616619 0.0062423 0.00631841 0.00632355 0.00630892 0.00628954 0.00627016 0.00625078 0.00624089 0.00604004 0.00581847 0.0055969 0.00537533 0.00504795 0.00456795 0.00407406 0.00358017 0.00308628 0.00262217 0.0023524 0.00207508 0.00179776 0.00152045 0.0012731 0.00117448 0.00106944 0.000964404 0.000859364 0.000773702 0.000667772 0.000556286 0.000444798 0.00033331 0.000255306
-0.0319474 -0.0319665 -0.0319856 -0.0320047 -0.0320238 -0.0320429 -0.0327438 -0.0336214 -0.0344041 -0.0351666 -0.0362248 -0.0372616 -0.0382519 -0.0392544 -0.0403138 -0.0412978 -0.042259 -0.043225 -0.0441656 -0.0451009 -0.0460068 -0.0469049 -0.0478109 -0.0487169 -0.049622 -0.0505271 -0.0514188 -0.0523225 -0.0532312 -0.054141 -0.0550613 -0.0559665 -0.0568787 -0.0577904 -0.0586999 -0.059615 -0.0605164 -0.0614147 -0.0623143 -0.0632142 -0.0641103 -0.0649914 -0.0658714 -0.066751 -0.0676286 -0.0685045 -0.0693627 -0.0702183 -0.0710765 -0.0719353 -0.0727918 -0.0736259 -0.0744613 -0.0752961 -0.0761285 -0.0769621 -0.0777694 -0.0785748 -0.0793825 -0.0801908 -0.0809975 -0.0817732 -0.0825503 -0.083327 -0.0841014 -0.0848774 -0.0856182 -0.0863582 -0.0871005 -0.0878432 -0.0885856 -0.089288 -0.0899932 -0.0906979 -0.0914005 -0.092106 -0.0927672 -0.0934294 -0.0940936 -0.0947582 -0.095424 -0.0960409 -0.096662 -0.0972827 -0.0979014 -0.0985242 -0.0990932 -0.0996662 -0.100241 -0.100816 -0.101395 -0.101914 -0.102442 -0.102969 -0.103495 -0.10403 -0.104502 -0.10498 -0.105458 -0.105937 -0.106422 -0.106844 -0.107271 -0.107698 -0.108125 -0.108556 -0.108926 -0.109299 -0.109671 -0.110044 -0.110419 -0.110734 -0.11105 -0.111366 -0.111683 -0.112002 -0.112261 -0.112521 -0.112781 -0.11304 -0.1133 -0.113502 -0.113704 -0.113906 -0.114109 -0.114311 -0.114456 -0.114599 -0.114743 -0.114887 -0.11503 -0.115112 -0.115198 -0.115283 -0.115369 -0.115456 -0.11548 -0.115509 -0.115537 -0.115566 -0.1156 -0.115567 -0.115541 -0.115515 -0.11549 -0.11547 -0.115386 -0.115308 -0.115228 -0.115149 -0.115075 -0.114939 -0.114806 -0.114674 -0.114544 -0.114416 -0.11423 -0.114048 -0.113864 -0.113679 -0.1135 -0.113264 -0.11303 -0.112796 -0.112565 -0.112336 -0.112054 -0.111777 -0.111497 -0.111216 -0.11094 -0.110615 -0.110291 -0.109967 -0.109646 -0.109325 -0.10896 -0.108597 -0.108232 -0.107867 -0.107503 -0.1071 -0.106696 -0.106292 -0.10589 -0.105487 -0.105046 -0.104608 -0.104168 -0.103728 -0.103289 -0.102813 -0.10234 -0.101867 -0.101396 -0.100928 -0.100423 -0.099924 -0.0994228 -0.0989211 -0.0984261 -0.097897 -0.0973708 -0.0968451 -0.0963222 -0.0958019 -0.0952523 -0.0947076 -0.0941602 -0.0936123 -0.0930692 -0.0925007 -0.0919336 -0.0913671 -0.0908029 -0.0902398 -0.0896552 -0.0890747 -0.0884919 -0.0879085 -0.0873291 -0.0867313 -0.0861349 -0.0855389 -0.0849452 -0.0843525 -0.0837448 -0.083141 -0.082535 -0.0819286 -0.0813258 -0.080711 -0.0800974 -0.0794843 -0.0788732 -0.0782631 -0.0776439 -0.0770282 -0.0764107 -0.0757927 -0.075178 -0.074557 -0.0739371 -0.0733177 -0.0727 -0.0720833 -0.0714629 -0.0708457 -0.0702269 -0.0696077 -0.0689915 -0.068374 -0.0677577 -0.0671417 -0.0665271 -0.0659136 -0.0653009 -0.0646911 -0.0640798 -0.0634683 -0.0628594 -0.0622534 -0.0616485 -0.0610439 -0.0604406 -0.0598381 -0.0592405 -0.0586453 -0.0580491 -0.0574526 -0.0568584 -0.0562706 -0.055684 -0.0550977 -0.0545123 -0.0539279 -0.0533515 -0.0527772 -0.0522021 -0.0516269 -0.0510536 -0.0504897 -0.0499269 -0.0493643 -0.0488024 -0.0482415 -0.0476912 -0.0471428 -0.0465937 -0.0460445 -0.0454971 -0.0449612 -0.0444265 -0.0438918 -0.0433578 -0.0428246 -0.042304 -0.0417851 -0.0412656 -0.0407461 -0.0402281 -0.0397234 -0.0392197 -0.0387161 -0.0382129 -0.0377106 -0.0372223 -0.0367353 -0.0362481 -0.0357608 -0.0352747 -0.0348031 -0.0343326 -0.033862 -0.0333917 -0.0329222 -0.0324677 -0.0320142 -0.0315607 -0.0311071 -0.0306545 -0.0302171 -0.0297807 -0.0293443 -0.0289079 -0.0284724 -0.0280522 -0.0276329 -0.0272137 -0.0267945 -0.0263761 -0.0259731 -0.025571 -0.025169 -0.0247668 -0.0243655 -0.0239795 -0.0235944 -0.0232095 -0.0228245 -0.0224405 -0.0220715 -0.0217039 -0.0213362 -0.0209684 -0.0206018 -0.0202498 -0.0198991 -0.0195486 -0.0191981 -0.0188488 -0.0185134 -0.0181795 -0.0178455 -0.0175116 -0.0171789 -0.0168603 -0.0165425 -0.0162248 -0.0159071 -0.0155904 -0.0152879 -0.0149859 -0.0146839 -0.0143817 -0.01408 -0.0137935 -0.0135065 -0.0132198 -0.0129332 -0.0126463 -0.0123749 -0.0121033 -0.0118316 -0.0115595 -0.0112873 -0.0110303 -0.0107728 -0.0105158 -0.0102588 -0.0100013 -0.00975851 -0.00951581 -0.00927303 -0.00902992 -0.008787 -0.00855802 -0.00832867 -0.00809972 -0.00787086 -0.00764151 -0.00742583 -0.00721031 -0.00699468 -0.00677855 -0.00656268 -0.00635959 -0.00615619 -0.00595333 -0.00575058 -0.00554753 -0.00535655 -0.00516618 -0.00497569 -0.00478466 -0.00459417 -0.00441503 -0.00423615 -0.00405767 -0.00387928 -0.00370126 -0.00353325 -0.0033663 -0.00319932 -0.00303218 -0.00286584 -0.00270922 -0.00255311 -0.00239711 -0.00224112 -0.00208579 -0.00194009 -0.00179451 -0.00164888 -0.00150301 -0.00135745 -0.00122203 -0.0010858 -0.000949955 -0.000814195 -0.000677672 -0.000551707 -0.000425305 -0.000298802 -0.000171848 -4.4605e-05 7.26674e-05 0.000190636 0.000308165 0.000425595 0.000543763 0.000652582 0.000761435 0.000870376 0.000979709 0.00108906 0.00118977 0.0012909 0.00139167 0.00149237 0.00159344 0.00168644 0.0017794 0.00187244 0.00196581 0.00205911 0.00214477 0.00223081 0.00231653 0.00240218 0.00248815 0.00256689 0.0026456 0.00272439 0.00280349 0.00288254 0.00295471 0.00302727 0.0030995 0.00317166 0.00324414 0.00331021 0.00337622 0.0034423 0.00350869 0.00357501 0.00363526 0.00369584 0.00375614 0.00381638 0.0038769 0.00393169 0.00398653 0.00404141 0.00409654 0.00415168 0.00420129 0.0042513 0.00430106 0.00435077 0.00440079 0.00444558 0.00449046 0.00453539 0.00458057 0.00462582 0.00466604 0.00470669 0.0047471 0.00478746 0.00482819 0.00486418 0.00490032 0.00493651 0.00497292 0.00500946 0.00504147 0.00507393 0.00510617 0.00513836 0.00517094 0.00519926 0.00522777 0.00525633 0.0052851 0.00531403 0.00533888 0.0053642 0.00538933 0.0054144 0.00543989 0.00546155 0.00548344 0.00550536 0.00552749 0.00554981 0.00556847 0.00558762 0.00560658 0.0056255 0.00564484 0.00566077 0.00567695 0.00569317 0.00570957 0.0057262 0.00573955 0.00575341 0.00576709 0.00578074 0.00579482 0.00580585 0.00581715 0.0058285 0.00584001 0.00585178 0.00586061 0.00586996 0.00587915 0.0058883 0.00589792 0.00590478 0.00591196 0.00591917 0.00592653 0.0059342 0.00593921 0.00594476 0.00595016 0.00595554 0.00596139 0.00596477 0.00596849 0.00597225 0.00597614 0.00598037 0.00598221 0.00598459 0.00598685 0.00598908 0.00599181 0.0059923 0.00599318 0.00599408 0.00599509 0.00599648 0.0059957 0.00599547 0.00599514 0.00599478 0.00599493 0.00599304 0.00599158 0.00599015 0.00598882 0.00598791 0.00598504 0.00598273 0.00598032 0.00597788 0.00597596 0.00597223 0.00596891 0.00596562 0.00596243 0.00595965 0.00595513 0.00595117 0.00594712 0.00594304 0.00593948 0.00593431 0.00592958 0.00592486 0.00592024 0.00591604 0.00591029 0.0059051 0.00589983 0.00589454 0.00588977 0.00588356 0.00587781 0.00587208 0.00586641 0.0058612 0.00585459 0.00584855 0.00584243 0.0058363 0.00583071 0.00582381 0.00581738 0.00581097 0.00580463 0.00579876 0.00579162 0.00578506 0.00577844 0.00577181 0.00576572 0.00575846 0.00575168 0.00574493 0.00573823 0.00573202 0.00572467 0.00571791 0.00571109 0.00570426 0.00569799 0.00569066 0.00568384 0.00567703 0.00567027 0.00566403 0.00565675 0.00565006 0.00564333 0.00563659 0.00563041 0.00562329 0.00561669 0.00561011 0.00560355 0.00559754 0.0055906 0.00558425 0.00557786 0.00557147 0.00556566 0.005559 0.00555287 0.00554676 0.00554066 0.00553514 0.00552876 0.00552298 0.00551719 0.00551139 0.00550618 0.00550018 0.00549476 0.00548934 0.00548392 0.00547911 0.00547349 0.00546848 0.00546347 0.00545847 0.00545407 0.0054489 0.00544436 0.0054398 0.00543522 0.00543129 0.00542653 0.00542237 0.00541829 0.00541422 0.00541077 0.0054064 0.00540281 0.00539918 0.00539539 0.00539242 0.00538825 0.00538466 0.00538143 0.00537829 0.00537573 0.0053714 0.00536859 0.0053656 0.00536182 0.00535955 0.00535422 0.00534897 0.00534598 0.00534352 0.00534109 0.00533205 0.00533032 0.0053274 0.00531946 0.00531842 0.00530411 0.00527954 0.00527503 0.00527526 0.00526452 0.00522163 0.0052332 0.00524357 0.00524885 0.00531696 0.00541043 0.00547399 0.00553758 0.00557556 0.00552925 0.00551004 0.005503 0.00549596 0.00548847 0.00549247 0.00551002 0.00552819 0.00554635 0.00555806 0.00556933 0.00557038 0.00557144 0.00557249 0.00557341 0.00557411 0.00559895 0.0056279 0.00565694 0.00568598 0.00565936 0.00569752 0.00576016 0.00582318 0.0058862 0.00596619 0.00618047 0.00626948 0.00635195 0.00642805 0.00632113 0.00635699 0.00633761 0.00632116 0.0063117 0.00625632 0.00620977 0.00598821 0.00576664 0.00553249 0.00503888 0.00469926 0.00420537 0.00371148 0.00321491 0.00259609 0.00241446 0.00213714 0.00185983 0.00158251 0.00124269 0.00122358 0.00111854 0.0010135 0.000908465 0.000751271 0.000715263 0.000603778 0.000492292 0.000380807 0.00020678