# vtk DataFile Version 2.0
sampleSurface
ASCII
DATASET POLYDATA
POINTS 9879 float
6 2.24045e-22 1 6 -4.23516e-22 0 5 0 0 5 4.23516e-22
0.5 5 5.02844e-23 1 7 1.69508e-17 0 6 2.40786e-23 1
7 -4.23516e-22 1 8 -1.0754e-16 0 8 4.23516e-22 1 9
-7.28995e-17 0 9 4.23516e-22 1 10 5.03714e-17 0 10 -4.23516e-22
1 11 -1.10109e-16 0 11 0 1 12 1.14673e-16 0
12 0 1 13 1.07357e-16 0 13 -2.11758e-22 1 14
-3.31971e-17 0 14 0 1 15 0 1 15 5.68977e-17
0 -5 -1.61559e-27 0 -5 1.61559e-27 0 -5 0 0.5
-5 8.07794e-28 0.5 -2.89285 0 0 -3.00033 0 0 -3.00033
-8.47033e-22 0.0932873 -1.00051 -1.01779e-17 0.124742 -0.875522 0 0.124691 -0.875461 -8.40257e-19
0 -1.00046 0 0 0.015625 1.94517e-24 2.2091e-05 5.35603e-05 -1.21492e-24 0.0155233
0.0156432 3.30872e-24 0.0155555 1.00057 -5.42101e-19 0.0152422 1.00056 0 0.0308735 1.03181
0 0.0308728 1.03183 -1.89735e-19 0 1.00058 0 0 2 1.21939e-17
0.125 2 2.01948e-28 0.25 2.25 0 0.25 2.25 -1.26744e-17 0
2 2.01948e-28 0 3 2.86199e-17 0.25 3 3.16479e-17 0.5 3.5
2.01948e-28 0.5 3.5 -1.71188e-17 0 3 2.01948e-28 0 4 0
0 4 0 0 4 5.4967e-18 0.5 4 1.00974e-28 0.5
6 2.52435e-29 1 5 0 1 6 2.96289e-24 1 5
3.35588e-25 2 6 4.23516e-22 2 7 4.23516e-22 2 8 0
2 9 -4.23516e-22 2 10 0 2 11 2.11758e-22 2
12 0 2 13 -2.11758e-22 2 14 0 2 15
2.11758e-22 2 -5 0 1 -5 0 1.5 -5 0
1.5 -5 0 1 -1.00051 0 1.00028 -1.0005 1.69407e-21 1.07098
-0.875582 -3.38813e-21 1.04431 -0.875573 0 1.00033 -0.000176494 0 1.00043 -0.000187004
1.35525e-18 1.03171 0.0310738 0 1.03178 0.0310423 5.42101e-20 1.0005 0.0154335 0
1.00047 2.25 0 1 2 5.03191e-18 1 2 -8.15581e-18 1.125
2 6.36148e-18 1.25 2.25 0 1.25 3.5 0 1 3
-7.24998e-18 1 3 -1.28933e-17 1.25 3 -3.74554e-18 1.5 3.5 0
1.5 4 0 1 4 2.0972e-17 1.5 4.50019 3.38813e-21 1.50011
4.50001 3.17637e-22 1.0073 4 -1.00974e-28 1 5 -4.34409e-17 1.5 5
-2.52435e-29 2 5 1.60269e-22 2 5 4.23516e-22 2.5 5 0
3 6 -4.23516e-22 3 7 4.23516e-22 3 8 4.23516e-22 3
9 0 3 10 0 3 11 -2.11758e-22 3 12
2.11758e-22 3 13 -2.11758e-22 3 14 2.11758e-22 3 15 0
3 -5 0 2 -5 0 2 -5 0 2
-0.750281 -2.71051e-20 2.0005 -0.996618 -5.0822e-21 2.00034 -0.884887 3.38813e-21 2.25032 -0.750178
-2.73083e-17 2.25039 0.124965 6.77626e-21 2.00046 0.0589837 -3.38813e-21 2.00046 0.102874 -1.69407e-21
2.25032 0.249982 -1.24887e-17 2.25032 0.249997 1.35525e-20 2.00047 1.0005 1.35525e-20 2.00056
1.00037 1.35525e-20 2.25063 1.25045 -1.35525e-20 2.25054 1.25043 -1.69813e-17 2.00047 1.12546
-1.35525e-20 2.00051 2.00018 3.38813e-21 2.00013 2.00027 1.07133e-17 2.25026 2.25027 6.77626e-21
2.25023 2.25017 6.77626e-21 2.00011 3.5 0 2 3.00014 -1.11944e-17 2.00005
3.00014 2.41235e-17 2.25008 3.00001 2.0117e-21 2.49701 3.5 0 2 4
-1.32349e-23 2 4.00001 0 2.00871 4.5 -3.02248e-22 2.5 4.5 2.52435e-29
2.5 4.50017 2.11758e-22 2.00014 -5 0 4 -4.00035 0 4
-4.0004 -5.66496e-18 3.5 -4.00039 0 3 -4.5002 0 3 -5
-9.5459e-22 3 5 -8.47033e-22 3.5 5 2.1923e-22 4 5 1.90287e-22
4 6 4.23516e-22 4 7 0 4 8 0 4
9 4.23516e-22 4 10 0 4 11 2.11758e-22 4 12
2.11758e-22 4 13 0 4 14 2.11758e-22 4 15 0
4 -5 0 3 -5 0 4 -0.750077 -1.69407e-21 3.00019
-0.975165 6.35275e-22 3.00002 -0.50002 0 3.43551 -0.50014 0 3.00035 0.249985
0 3.00023 0.097637 1.69407e-21 3.00023 0.500042 3.38813e-21 3.26572 0.500014 0
3.00034 1.00005 -1.35525e-20 3.00048 1.00018 8.47033e-22 3.50026 1.50019 0 3.50023
1.50022 -1.55041e-17 3.00052 1.2501 0 3.00055 2.00039 0 3.00045 2.00025
6.77626e-21 3.50028 2.50024 -6.77626e-21 3.50026 2.50027 -2.15688e-17 3.00027 2.25034 0
3.00035 3.0002 -1.69407e-21 3.00018 3.00017 9.52404e-18 3.50018 3.50015 3.38813e-21 3.50016
3.50018 0 3.00016 4.00014 -6.90484e-17 3.50015 4.41401 8.47033e-22 3.50003 4.5
2.24255e-22 3 4.5 0 3 4.00015 0 3.00016 5 0
4 -5 -4.56216e-21 5 -4.00031 0 5 -3.00034 1.35525e-20 5.00001
-3.0004 2.50722e-18 4.5 -3.00052 0 4 -3.50051 -3.61446e-17 4 5
-5.3804e-23 4 4.5 0 4 4.01315 -1.98523e-22 4 6 -1.77009e-22
5 7 8.49641e-23 5 8 -2.44576e-22 5 9 -1.79481e-22 5
10 -8.26783e-24 5 11 3.71066e-23 5 12 7.40495e-23 5 13
-7.46022e-23 5 13 -3.57483e-23 5 14 -2.11758e-22 5 15 0
5 -5 1.00974e-28 5 0.5 0 4 0.499998 0 4
0.5 0 4 1 -1.61559e-27 4 1 -1.61559e-27 4 1.5
-5.24977e-23 4 1.5 0 4 2.00017 -3.38813e-21 4.00019 2 -4.13239e-17
4.5 2.5 0 4.5 2.50016 0 4.00018 3 0 4
3 2.76547e-17 4.5 3.5 -2.52435e-29 4.5 3.5 0 4 5
0 5 4 0 4 4 -3.3529e-17 4.5 4 1.26218e-29
5 6 3.15544e-30 5 7 0 5 8 0 5
9 3.9443e-31 5 10 0 5 11 -9.86076e-32 5 12
-4.93038e-32 5 13 1.2326e-32 5 -5 -1.50785e-21 6 -4.00028 0
6 -3 -2.11758e-22 6 -2 -2.11758e-22 5 -2.50019 3.01205e-17 5.00003
-2 0 6 -1 -2.35712e-17 5 -1.5 1.39417e-17 5 -1
8.47033e-22 6 -1.46255e-06 1.4195e-17 5 -0.500002 2.00704e-17 5 -4.41788e-07 4.23516e-22
6 1 1.75768e-17 5 0.499999 -4.03442e-18 5 1 0 6
2 -1.6111e-22 6 1.5 -2.46127e-23 5 14 -2.49584e-23 6 15
6.49997e-23 6 -5 0 6 2 -1.00974e-28 6 2 -6.34437e-17
5 1.5 4.03897e-28 5 3 5.04871e-29 6 3 -2.10964e-17 5
2.5 0 5 4 -1.26218e-29 6 3.5 2.52435e-29 5 5
-6.31089e-30 6 6 -3.15544e-30 6 7 1.57772e-30 6 8 7.88861e-31
6 9 -3.9443e-31 6 10 0 6 11 0 6
12 -2.46519e-32 6 13 1.2326e-32 6 14 0 6 15
-1.52652e-17 6 -5 -6.17313e-21 7 -4.00025 1.35525e-20 7 -3 6.2323e-23
7 -3 5.04871e-29 7 -3 1.09771e-22 7 -2 4.23516e-22 7
-1 -4.23516e-22 7 -6.20385e-08 0 7 1 0 7 2
0 7 -5 -2.52435e-29 7 -3 0 7 2 5.04871e-29
7 3 2.52435e-29 7 4 0 7 5 6.31089e-30 7
6 -3.15544e-30 7 7 0 7 8 3.9443e-31 7 9
0 7 10 -9.86076e-32 7 11 0 7 12 1.2326e-32
7 13 0 7 14 0 7 15 -1.08141e-17 7
-5 1.7064e-23 8 -4 0 8 -3 1.32733e-22 7 -3
0 8 -2 0 8 -1 -4.23516e-22 8 -4.65216e-09 0
8 1 0 8 2 0 8 -5 7.6473e-18 8
2 -2.52435e-29 8 3 0 8 4 0 8 5
-6.31089e-30 8 6 1.57772e-30 8 7 0 8 8 3.9443e-31
8 9 0 8 10 9.86076e-32 8 11 0 8
12 1.2326e-32 8 13 0 8 14 0 8 15
0 8 1.98072e-05 -1.47443e-18 0.0155232 -6.78597e-10 6.46235e-27 0 -0.015625 1.89557e-19
0 -0.015607 0 0.0155222 0.015625 6.46235e-27 0 0.984621 -2.64274e-19 1.00027
1.00023 6.77626e-21 1.00025 1.00022 0 0.984609 0.984609 0 0.984627 -0.875589
0 0.875281 -1.00051 0 0.875232 -0.000168606 -7.04731e-19 0.984785 -0.0157783 0
0.984748 -0.0157891 0 1.0004 0.984964 -4.87891e-19 0 0.984951 0 0.0152386
0.0154375 2.71051e-20 0.984823 0.500347 0 0 0.484697 -1.40946e-18 0 0.484699
-2.71051e-20 0.0154073 0.50035 2.71051e-20 0.0153902 6.85113e-05 -6.74075e-34 0.497067 0.00351742 0
0.497921 0.00351735 -6.16298e-33 0.497919 0.500935 -5.29396e-23 0.500103 0.500923 1.81265e-19 0.484474
0.485343 0 0.48448 0.485354 -5.29396e-23 0.500107 -1.0005 0 1.12529 -0.875598
0 1.12535 -0.847656 0 1.75035 -0.875511 -8.67701e-18 1.75034 -1.00046 8.00954e-18
1.75027 -1.00043 4.23516e-22 2.00034 -0.000137327 0 2.00046 -0.000174407 -6.77626e-21 1.87558
-0.125203 0 1.87555 -0.125185 -4.78404e-18 2.0005 1.00026 0 1.03153 0.969013
6.77626e-21 1.00028 0.969038 8.80914e-19 1.03156 0.0614109 0 1.87557 -0.0314004 0
1.00037 -0.0314207 0 1.03167 -0.750309 -7.75205e-18 1.87547 -0.750381 0 1.75039
0.124961 0 1.87556 1.00049 5.54298e-18 1.87554 0.875516 1.35525e-20 1.87556 0.875507
0 2.00058 -0.442444 -4.23516e-22 0.0622773 -0.437776 0 0.0622817 -0.437709 -2.11758e-22
0.0234443 -0.0040072 3.0527e-19 0.500638 -0.000168277 0 0.500646 -2.94017e-06 0 0.497049
-0.00322378 0 0.496279 -0.492468 -5.29396e-23 0.500175 -0.469803 -2.11758e-22 0.500181 -0.469837
0 0.468841 -0.501073 0 0.468827 -0.501061 2.64698e-23 0.480492 -0.000101869 -1.47052e-19
0.504366 -0.00397949 -2.01948e-28 0.504355 -0.501028 0 0.522018 -0.501022 0 0.531434
-0.469779 0 0.531436 0.00364412 0 0.500984 0.00375691 0 0.504522 0.485366
0 0.514811 0.485366 0 0.515734 0.500948 0 0.515729 0.500947 -1.65436e-24
0.515118 -0.500391 3.52366e-19 0.0622223 -0.437669 4.23516e-22 0 -0.500304 0 0
-0.501042 0 0.500173 -0.50037 -5.42101e-20 1.00067 -0.43782 0 1.00061 -0.437881
5.42101e-20 0.938131 -0.500433 0 0.93818 0.500963 -5.14996e-19 0.984633 0.485343 0
0.984612 0.485309 -1.35525e-20 1.00027 0.500901 2.71051e-20 1.00034 -2.0003 0 0
-2.00031 0 0.249984 -1.75035 -6.77626e-21 0.249978 -1.75034 -2.12097e-18 0 -1.12549
1.69407e-21 0.0567975 -1.12551 -3.38813e-21 0.124883 -1.1051 0 0.12486 -2.00053 -4.06576e-19
0.750021 -2.00052 0 1.00001 -1.75043 0 1 -1.75044 1.35525e-20 0.750004
1.03145 0 1.00022 1.03142 0 0.968935 1.0002 -6.77626e-21 0.968969 -1.12548
0 0 -1.12547 0 0.875178 -1.12544 0 1.00021 -0.562867 -4.63496e-18
0 -0.562923 0 0.0621015 -0.875622 1.40946e-18 0.499992 -0.875629 -1.40946e-18 0.43746
-0.875614 0 0.37493 -1.00058 -1.35525e-20 0.374847 -1.0006 -6.77626e-21 0.499982 -0.501071
0 0.459931 -0.501067 7.5513e-19 0.437262 -0.563478 0 0.437296 -0.563493 0
0.500081 1.875 7.07317e-18 0 1.875 0 0.125 2 -9.02096e-18 0.875
1.875 -1.00974e-28 0.875 1.875 0 1 -0.501021 2.64698e-23 0.532727 0.516516
0 0.515723 0.516516 -1.65436e-24 0.515322 -1.00059 3.04932e-18 0.625092 -0.875599 0
0.625021 -0.875605 0 0.562503 -0.563001 -5.42101e-20 0.938195 -0.562935 0 1.00068
-0.501004 6.60686e-20 0.562681 -0.563465 6.77626e-21 0.562645 0.515999 -2.71051e-20 0.0153741 0.515996
1.89735e-19 0 1.00002 0 0.499997 1.00004 6.91179e-19 0.484354 0.984415 3.38813e-21
0.484354 0.984397 0 0.499997 0.516504 -1.57919e-19 0.500096 0.516494 -4.23516e-22 0.484467
0.984397 0 0.515625 1.00002 0 0.515625 0.516455 3.25261e-19 1.00046 0.516567
-2.71051e-20 0.984687 -0.000486907 -2.11758e-22 0.751673 0.0150628 0 0.751704 0.0151069 -2.11758e-22
0.736039 -0.000466544 1.79846e-18 0.73608 0.250631 -1.05879e-22 0.499142 0.234996 0 0.4991
0.235042 0 0.51471 0.250685 1.77115e-18 0.514757 0.234396 1.59578e-18 0.751475 0.250021
2.64698e-23 0.751472 0.250098 0 0.735925 0.234416 0 0.735938 0.500674 0
1.03185 0.469677 2.71051e-20 1.00028 0.46947 -2.71051e-20 1.0318 -0.000487113 0 0.767278
0.0150573 0 0.767313 0.249988 1.48893e-23 0.985961 0.249988 0 0.985377 0.234363
0 0.98538 0.234363 8.27181e-25 1.00097 0.234889 9.09899e-24 1.00097 0.250006 2.3521e-18
0.76703 0.234384 0 0.767027 0.249988 -2.64698e-23 1.00096 0.250614 0 0.249941
0.237135 1.32349e-23 0.249938 0.250669 1.98523e-23 0.26291 0.484921 5.42101e-19 0.249634 0.484944
-5.42101e-20 0.265243 0.500584 0 0.265233 0.500562 5.42101e-20 0.249623 0.25266 0
[...]
POINT_DATA 9879
FIELD attributes 1
U 3 9879 float
24.6073 -0.00237356 0.525725 25 0 0 25 0 0 24.352 -0.0343308
1.20791 24.0053 0.000532353 1.63248 25 0 0 24.6073 -0.00237356 0.525725
24.6133 -0.0036963 0.541509 25 0 0 24.62 -0.00411221 0.537705 25
0 0 24.6245 -0.00435624 0.529823 25 0 0 24.6289 -0.00456098
0.520864 25 0 0 24.6339 -0.00469279 0.511241 25 0 0
24.6391 -0.00475259 0.501266 25 0 0 24.6439 -0.0047796 0.491361 25
0 0 24.6491 -0.00478809 0.480345 24.652 -0.00478846 0.474203 24.8597 -0.00799808
0.196247 25 0 0 25 0 0 25 0 0
25 3.27601e-13 -8.77349e-11 25 0 0 25 0 0 25.0003
2.51251e-06 -0.000778271 25.2116 -0.000356024 -0.0846249 25.3147 -0.000875217 -0.127755 25 0
0 25 0 0 25.0037 -9.21887e-05 0.000226411 27.6342 -0.0627584 0.149338
27.5888 -0.0649153 0.159429 24.6677 -0.0681033 0.103123 24.7151 -0.0778298 0.232638 24.7108
-0.0732879 0.229823 25 0 0 25 0 0 24.8717 -0.0682855
0.755028 24.8686 -0.0863083 1.68154 24.8206 -0.0909129 1.60295 25 0 0
25 0 0 24.8743 -0.0855936 1.23285 24.3185 -0.082492 2.85001 24.1367
-0.0317654 1.58983 25 0 0 25 0 0 25 0
0 25 0 0 24.2006 -0.0377252 1.48287 24.2006 -0.0377252 1.48287
24.6073 -0.00237356 0.525725 24.0053 0.000532356 1.63248 24.6073 -0.00237356 0.525725 24.8884
0.0124229 0.565787 24.8095 0.00500375 0.381759 24.794 0.00529487 0.376174 24.788 0.00552787
0.367026 24.7846 0.00564071 0.360484 24.7821 0.00567238 0.356132 24.7802 0.00570808 0.352942
24.7786 0.00569511 0.350572 24.7772 0.0056503 0.348628 24.7756 0.00561475 0.348024 24.7746
0.00560203 0.348369 25 0 0 25 0 0 25 2.66795e-13
-7.0095e-11 25 3.51515e-13 -1.11908e-10 24.8218 0.00201979 -0.0936806 24.8209 0.00195111 -0.0744635
24.7462 0.00297662 -0.0825746 24.7426 0.00307865 -0.0988293 23.1009 0.0651849 2.06327 23.3048
0.0581282 1.87534 23.2914 0.0622335 2.05935 23.0836 0.0698583 2.27522 23.0739 0.0680476
2.18445 23.0277 0.0715586 6.96976 23.1667 0.107377 8.73086 23.6516 0.174134 6.42105
24.1666 0.134392 3.97952 23.9332 0.111839 4.00386 23.6405 0.0110335 2.3565 23.0844
0.00734716 5.30303 23.6487 0.0822886 4.19098 24.4921 0.0607336 2.1977 24.4127 0.026132
1.56315 23.6674 0.00707539 2.26443 24.3427 0.0285151 1.54499 24.296 0.0290716 1.53666
23.7097 0.00408299 2.19937 23.6674 0.00707539 2.26443 24.3568 0.0238178 1.31704 24.8884
0.0124229 0.565787 24.8884 0.0124229 0.565787 25.0231 0.00698103 0.297979 25.0224 0.00396995
0.166129 25.0183 0.00236253 0.118771 25.0149 0.00278733 0.110329 25.0132 0.00300435 0.107569
25.0111 0.00317265 0.107136 25.0085 0.00330142 0.107823 25.0055 0.00341143 0.109117 25.0025
0.00343505 0.110859 24.9996 0.00342214 0.112769 24.997 0.00341738 0.11555 24.9958 0.00341873
0.1174 25 0 0 25 0 0 25 1.49529e-13 -2.76028e-11
24.8797 0.0011023 0.055762 24.9073 0.000722821 0.0279189 24.9201 0.000636938 0.0396293 24.9107
0.000761956 0.0512119 24.8116 0.00367543 0.276825 24.8143 0.00337091 0.253145 24.8772 0.00201888
0.182066 24.8788 0.00227169 0.208391 24.8222 0.00395323 0.305276 24.8841 0.00608873 0.463573
24.9161 0.00341424 0.312345 24.9277 0.00375058 0.336403 24.8988 0.00676194 0.499557 24.8898
0.0067098 0.497683 24.9131 0.00934278 0.612292 24.9481 0.00507414 0.409406 24.9556 0.00580179
0.438031 24.9243 0.0107523 0.668305 24.9521 0.0119729 0.62665 24.9516 0.0153766 0.730666
24.9717 0.00917997 0.485124 24.9861 0.00533218 0.33104 24.9521 0.0119729 0.62665 24.9417
0.0139096 0.623958 24.9431 0.0137767 0.618678 25.0237 0.00751472 0.327731 25.0237 0.00751472
0.327731 24.9277 0.0153975 0.640021 25 1.09193e-13 5.812e-12 24.9992 7.66892e-06 0.000411045
24.9989 8.94775e-06 0.000150785 24.9988 9.14559e-06 -0.000263028 24.9996 4.10741e-06 -0.000212099 25
1.3564e-13 -6.96607e-12 25.0215 0.00234248 0.105215 25.0216 0.00126118 0.0661924 25.0216 0.00126118
0.0661924 25.0256 0.0013457 0.0594228 25.0286 0.00146073 0.0601264 25.0299 0.00155353 0.0610667
25.03 0.00161386 0.0613489 25.0298 0.00165411 0.0611755 25.0294 0.00168325 0.0609805 25.029
0.00170785 0.0608576 25.0287 0.00172731 0.0608476 25.0287 0.00173401 0.0608583 25.0288 0.00173347
0.060825 25 0 0 25 0 0 24.9592 0.000308917 0.0349767
24.9652 0.000238931 0.02594 24.9734 0.000234356 0.0341354 24.9567 0.000377457 0.0457999 24.9513
0.000703634 0.0909499 24.9521 0.000619247 0.0801439 24.9675 0.00056083 0.0810009 24.9566 0.000768134
0.101766 24.9662 0.000954495 0.125642 24.9827 0.000470776 0.076134 24.9897 0.000550402 0.0866474
24.9771 0.00113969 0.143861 24.9703 0.00110464 0.141026 24.9863 0.00134563 0.158602 24.9965
0.000645871 0.0946287 25.0026 0.000760768 0.10099 24.9938 0.00160726 0.166836 24.989 0.00158961
0.171357 25.0027 0.0019664 0.174523 25.0088 0.000973104 0.106533 25.0148 0.00120943 0.109833
25.0128 0.002528 0.182154 25.0187 0.00150165 0.109497 25.0201 0.00199605 0.11064 25.022
0.00416872 0.18381 25.022 0.00416872 0.18381 25.0195 0.00309133 0.18256 25.0216 0.00126118
0.0661924 25 6.34688e-14 6.81652e-12 24.9996 6.65525e-06 0.000717349 24.9988 1.53041e-05 0.00202202
24.9979 1.8153e-05 0.00228902 24.997 2.04142e-05 0.00191802 24.9983 1.31443e-05 0.000821542 25.0216
0.00126118 0.0661924 25.02 0.00119684 0.075117 25.0184 0.000827341 0.0711623 25.0241 0.000537394
0.0291824 25.0261 0.00066724 0.0280307 25.027 0.0007668 0.0265923 25.0276 0.000839338 0.0252315
25.028 0.000894134 0.0241686 25.0284 0.000934416 0.0235127 25.0287 0.000968021 0.0231966 25.029
0.000992215 0.0230956 25.029 0.000992215 0.0230956 25.0295 0.00100567 0.023185 25.03 0.00101085
0.0232739 25 0 0 24.9881 0.00022773 0.0425399 24.9881 0.000227729 0.0425399
24.9881 0.000227729 0.0425399 24.9919 0.000280922 0.0510238 24.9919 0.000280922 0.0510238 24.9968
0.000325853 0.0578131 24.9968 0.000325853 0.0578131 25.002 0.000380789 0.0628546 25.005 0.000239855
0.0422192 25.0089 0.000279732 0.0445185 25.0069 0.000440252 0.066611 25.0114 0.000539888 0.0691299
25.0123 0.000329928 0.0458359 25.0154 0.000420284 0.0468937 25.0154 0.000671962 0.0708081 25.0211
0.000383558 0.0296703 25.0184 0.000817362 0.0710555 25.0175 0.000464611 0.0456246 25.0175 0.000294466
0.0308852 25.0241 0.000537394 0.0291824 25.0261 0.00066724 0.0280307 25.027 0.0007668 0.0265923
25.0276 0.000839338 0.0252315 25.028 0.000894134 0.0241686 25.0284 0.000934416 0.0235127 25.0287
0.000968021 0.0231966 25.029 0.000992215 0.0230956 25 2.72038e-14 2.95465e-12 24.9999 5.69445e-06
0.000620293 24.9997 1.244e-05 0.00155404 24.9974 2.93426e-05 0.00482469 24.9979 2.18127e-05 0.00321318
24.9997 2.10832e-05 0.00317589 24.9964 5.13331e-05 0.00981981 24.9964 4.03975e-05 0.0071892 25.0002
3.26682e-05 0.00567097 24.9972 8.24891e-05 0.0169376 24.9959 6.85593e-05 0.0136902 25.0017 4.71748e-05
0.0087911 25.001 0.000119346 0.0241047 24.9981 0.000105786 0.0217301 25.0046 6.38332e-05 0.0117774
25.0087 8.26786e-05 0.0138837 25.0034 0.000145842 0.0284328 25.0291 0.000481736 0.0129005 25.0293
0.000486679 0.0129593 25 0 0 25.0087 8.26786e-05 0.0138837 25.0068 0.000159108
0.0290147 25.0034 0.000145842 0.0284328 25.013 0.000105884 0.0148935 25.0127 0.000214738 0.031398
25.0098 0.000194055 0.0322402 25.0169 0.000139008 0.0150988 25.0153 0.000280364 0.03357 25.0201
0.000187546 0.0149288 25.0227 0.00024893 0.0144269 25.0245 0.000311781 0.0136851 25.0258 0.000361169
0.0130994 25.0268 0.000394687 0.0127957 25.0275 0.000419353 0.0126707 25.028 0.000438013 0.0126532
25.0284 0.000455791 0.0127055 25.0287 0.000471127 0.0127919 25.0291 0.000481736 0.0129005 25.0293
0.000486679 0.0129593 25 1.08335e-14 7.52584e-13 25 5.03562e-06 0.000350781 25.0002 1.06546e-05
0.000832364 25.0002 1.06546e-05 0.000832364 25.0002 1.06546e-05 0.000832364 25.0006 1.72462e-05 0.00159218
25.0015 2.55209e-05 0.00268047 25.0032 3.55525e-05 0.00399338 25.0059 4.71185e-05 0.00525363 25.0092
6.00427e-05 0.00615596 25 0 0 25.0002 1.06546e-05 0.000832364 25.0092 6.00427e-05
0.00615596 25.0129 7.53302e-05 0.00658592 25.0164 9.49599e-05 0.00666727 25.0194 0.000120486 0.00653076
25.0218 0.000151906 0.00623348 25.0236 0.00018407 0.00589962 25.025 0.000211284 0.00561863 25.026
0.000232445 0.00538475 25.0267 0.000250077 0.00516443 25.0273 0.000265262 0.00497194 25.0277 0.00027872
0.0048244 25.0281 0.000290061 0.00472145 25.0285 0.00029883 0.00465957 25.0288 0.000303086 0.00463297
25 1.12111e-06 0 25.0001 4.81236e-06 0 25.0002 1.06546e-05 0.000832363 25.0003
1.00583e-05 0 25.0009 1.60682e-05 0 25.0019 2.34469e-05 0 25.0036 3.22988e-05
0 25.0062 4.25076e-05 0 25.0093 5.39768e-05 0 25 1.12111e-06 0
25.0093 5.39768e-05 0 25.0128 6.71969e-05 0 25.0162 8.35163e-05 0 25.019
0.000103558 0 25.0214 0.000127116 0 25.0233 0.000151044 0 25.0247 0.000172078
0 25.0257 0.000189013 0 25.0265 0.00020295 0 25.0271 0.000214452 0
25.0276 0.000224083 0 25.028 0.000231847 0 25.0284 0.000237455 0 25.0287
0.000240196 0.00110898 27.6343 -0.0627537 0.149316 25 0 0 25 0
0 27.6733 -0.0605421 0.138779 25 0 0 24.1317 0.184996 5.40736
24.032 0.185048 5.36464 23.7287 0.199644 5.58965 23.8653 0.197582 5.60624 24.7493
0.00325289 -0.155676 24.8366 0.00204426 -0.13259 22.989 0.0689106 2.16352 23.0043 0.0664089
2.05191 23.0985 0.0633541 1.97301 25 0 0 24.6713 -0.0686045 0.104012
22.9775 0.0714004 2.27623 25 0 0 25 0 0 25.3848
-0.0898171 0.19328 25.3339 -0.0894643 0.189534 22.1691 0.0722762 4.99573 22.6951 0.0726134
5.27307 22.6946 0.0726121 5.2732 23.436 -0.201352 11.2465 23.5318 -0.225813 10.802
23.5812 -0.217239 10.9009 23.4839 -0.191827 11.334 24.8202 0.00189861 -0.0597023 24.7529
0.0027901 -0.0526273 24.8514 0.00134906 0.0397194 24.8562 0.0012773 0.0343262 24.8818 0.000969741
0.0191185 24.9078 0.000717138 0.0274875 24.8169 0.00310071 0.231924 24.7747 0.0041117 0.282135
24.7795 0.00353515 0.233655 24.8145 0.00280045 0.200114 24.3096 0.15826 4.85525 24.2007
0.179703 5.33662 24.3426 0.153086 4.7732 24.7751 0.00441016 0.30598 23.1315 0.0605368
1.85703 23.3294 0.054076 1.69543 24.8569 0.00134972 0.0608713 24.8348 0.00160299 0.0585506
24.7755 0.00472196 0.330576 24.8632 0.00830017 0.576444 24.8517 0.00785076 0.552841 24.8714
0.00602931 0.45866 26.4751 -0.011691 -0.229177 26.4965 -0.011944 -0.230654 25.5633 -0.00449756
-0.0868234 22.6918 0.0731773 4.46144 23.1893 0.0740802 4.74838 22.1583 0.0722692 4.98998
21.6649 0.0717656 4.74711 24.4409 0.00638629 -1.30772 24.3483 0.00636944 -1.45101 24.5944
0.00397923 -1.55099 24.6637 0.00439759 -1.36038 24.5938 0.00513999 -1.32061 23.6291 0.0680175
4.17097 23.0513 0.0664417 3.86237 24.3371 0.00782632 -1.20194 24.2773 0.00844425 -1.17971
24.1387 0.00877584 -1.3209 23.7266 0.0748605 5.02942 24.2485 0.0695453 4.53035 23.4031
-0.161971 11.6931 23.3981 -0.160097 11.7157 23.3523 -0.169685 11.642 23.3556 -0.170922
11.6265 26.2097 -0.0085345 -0.210841 25 0 0 25 0 0
24.4759 0.00639267 -1.25352 24.2309 0.012689 0.0698734 24.0918 0.0161176 0.163628 23.9735
0.0184538 0.116379 24.1494 0.0142964 0.0163585 24.0258 0.129264 4.75559 23.9919 0.127946
4.72654 24.019 0.122153 4.51073 24.0557 0.122681 4.50113 25 0 0
25.0164 3.85945e-05 -0.0121153 25.0276 5.28812e-05 -0.0208981 25 0 0 25.0678
-6.56086e-05 -0.0256205 25.1491 -0.000144289 -0.0563327 25.1593 -0.000178597 -0.0609534 24.996 0.000104984
-0.0250563 24.986 0.000134195 -0.0238704 24.9753 0.000235621 -0.0348432 24.991 0.000185789 -0.0390301
23.7177 0.190634 5.37973 22.5534 0.219669 5.74943 22.9471 0.214584 5.7236 25
0 0 24.8914 0.00132503 -0.108572 24.8756 0.00134998 -0.0834125 25 0
0 25.9748 -0.00601377 -0.182268 24.9723 0.00186296 -0.310958 25.0383 0.0014099 -0.322112
25.1066 0.000841006 -0.298174 25.0843 0.000551519 -0.199938 24.9991 0.00111751 -0.21439 24.7287
0.00388882 -1.35969 24.8944 0.00259217 -1.35794 24.9428 0.0031588 -1.01592 24.6579 0.00577848
-0.955179 25 0 0 24.8414 -0.06914 0.784327 23.0725 -0.0355885 10.213
23.088 -0.0376163 10.7903 23.181 0.135205 9.33286 24.2726 0.00851692 -1.17375 23.3105
-0.179747 11.5697 23.3126 -0.180547 11.5592 24.9241 0.00159722 -0.202161 24.8601 0.00268033
-0.279528 24.9051 0.00241959 -0.30952 24.2999 0.0110232 -0.0489428 24.3538 0.00992833 0.00573106
24.163 0.0102018 -1.03569 24.4305 0.00830316 -0.824106 25.2857 -0.0890632 0.185765 25
0 0 23.6772 -0.312124 7.63382 23.7856 -0.296344 7.14865 23.7548 -0.300224
7.24196 23.6397 -0.316507 7.74727 23.393 -0.210928 11.1598 23.488 -0.234295 10.7035
23.5147 -0.331887 8.28417 23.5491 -0.328599 8.1776 24.0821 0.12563 4.56629 24.0578
0.130973 4.78414 20.1322 0.103868 3.8432 20.0533 0.107009 4.13022 19.7545 0.105614
4.21535 19.8438 0.102648 3.91579 25.744 -0.0993566 13.318 26.1224 -0.0973425 13.4646
26.0286 -0.0834673 14.074 25.5924 -0.084114 13.8602 20.8825 0.154648 9.09735 21.1683
0.158204 9.3299 20.9757 0.155016 9.93509 20.6033 0.151566 9.64953 24.1111 0.109326
4.02945 23.9891 0.119982 4.44263 24.0506 0.10699 3.97269 20.4127 0.104522 3.75851
20.343 0.107781 4.03169 23.2999 0.104063 3.88794 23.2969 0.104278 3.89616 23.2504
0.102322 3.80745 23.3234 0.0975438 3.62488 23.3253 0.0975768 3.62662 21.3747 0.160206
8.79923 21.1362 0.156599 8.58523 23.3788 0.0985248 3.67656 26.6297 -0.154576 4.78395
26.7605 -0.152863 4.78768 26.6155 -0.160377 5.13892 25.1191 -0.164929 4.05486 25.0527
-0.174742 4.40208 24.9987 -0.174192 4.33022 25.0652 -0.164336 3.98915 26.5931 -0.161818
5.20936 26.4593 -0.163572 5.19511 26.4843 -0.156289 4.77074 24.5352 0.0110812 0.56144
24.463 0.0133697 0.643505 24.471 0.0120623 0.565483 24.5314 0.0103498 0.507661 24.6331
0.00553391 0.219102 24.6305 0.00560196 0.223065 24.528 0.00756069 0.2566 24.5406 0.00719074
0.233503 24.524 0.012455 0.639368 24.4618 0.0146876 0.722098 24.6425 0.0187034 1.01062
24.5987 0.0230852 1.18247 24.5712 0.0220526 1.13376 24.6133 0.018438 0.991811 24.3082
0.01115 0.109277 24.1983 0.0139528 0.194895 24.6807 0.0042613 0.145551 24.5584 0.00666035
0.200787 24.6047 0.00558202 0.151933 29.5744 -0.107241 3.58665 29.3323 -0.103747 3.25275
29.4627 -0.0994581 3.01866 29.7258 -0.102744 3.32944 19.1615 0.00554942 -5.21772 19.233
0.00790393 -4.48882 18.5505 0.00949639 -4.33873 18.296 0.00720622 -5.11847 28.4448 -0.0347169
-0.995035 28.7343 -0.0350266 -1.40992 29.3598 -0.0426596 -1.00964 28.916 -0.0417454 -0.661927
25.9455 -0.00654839 -1.42783 25.985 -0.0070078 -1.45335 26.0241 -0.00732819 -1.42413 19.8698
0.00659193 -4.49857 19.927 0.00414367 -5.16294 27.9643 -0.028535 -1.19893 28.1098 -0.0283946
-1.62613 20.2129 0.10068 3.57103 19.9352 0.0996458 3.63122 19.3333 0.010084 -3.90105
18.767 0.011684 -3.71724 19.8683 0.00874653 -3.97649 29.1856 -0.10793 3.46932 29.4072
-0.111603 3.82249 25.9075 -0.115322 12.7793 26.2562 -0.112469 12.8874 26.6126 -0.161562
5.21144 26.7809 -0.152595 4.78826 26.7727 -0.159317 5.21826 25.4138 -0.101957 13.1554
25.5901 -0.118787 12.6476 17.1273 0.0824402 3.93131 17.5051 0.0846025 3.94946 17.3616
0.0870802 4.29801 17.0204 0.0850554 4.27033 17.0521 0.0835718 4.10879 28.9509 -0.0951649
13.3788 28.8893 -0.0944531 13.2701 28.0369 -0.0909115 13.1558 28.4344 -0.090332 13.4205
15.8482 0.108228 6.8788 15.6105 0.107624 6.7598 15.8161 0.105764 6.57967 16.0275
0.10637 6.67378 25.2225 -0.0854048 13.6414 19.673 0.204126 8.71132 19.6995 0.201361
8.75842 19.8541 0.184284 9.22892 19.6441 0.185903 9.10641 21.4973 0.162194 9.55523
21.2864 0.158689 10.1358 25.9303 -0.00551285 -0.891112 25.6824 -0.00339182 -1.14338 25.7799
-0.00462455 -1.32098 26.1887 -0.00867601 -1.30121 26.2741 -0.00926989 -1.1014 22.1162 0.0518236
0.552171 21.8348 0.0588376 0.822053 21.5269 0.0577454 0.711589 21.8571 0.0508844 0.418115
23.5987 0.022648 -0.26939 23.5234 0.0209072 -0.542184 23.9218 0.0157071 -0.529782 23.9354
0.0167716 -0.331418 22.1868 0.0445118 0.176477 22.398 0.0454062 0.327958 19.3436 0.12761
6.72272 19.7471 0.129958 6.50124 19.7877 0.133524 6.89696 19.3663 0.13111 7.15765
17.7475 0.107738 13.8673 18.3894 0.125595 15.0401 18.7004 0.149944 15.6497 18.1455
0.137394 14.4043 15.6417 0.110125 7.09779 16.0763 0.108955 6.97855 15.8805 0.110834
7.21535 20.4844 0.101272 3.49882 23.5967 0.0317621 0.690593 23.5145 0.0353538 0.820528
23.3674 0.0387896 0.857872 23.4633 0.034807 0.713422 22.3643 0.0514863 0.645868 22.1228
0.0581791 0.895932 29.1432 -0.0999018 13.2352 29.2321 -0.0999012 13.1947 31.8134 -0.117543
6.82927 32.2026 -0.11579 7.47808 31.7424 -0.119247 7.84134 31.4021 -0.121422 7.18983
28.8301 -0.14575 9.19397 28.7416 -0.1498 8.58319 29.0859 -0.145604 8.47573 29.1979
-0.141695 9.09328 23.4099 0.101179 3.78684 23.4108 0.101254 3.78996 23.3449 0.106176
3.98043 19.8973 0.218119 8.40761 20.0224 0.220959 8.42083 21.6246 0.163927 8.98124
28.9129 -0.0955539 13.4714 28.604 -0.0902173 13.6044 17.6815 0.0793623 13.5303 18.1155
0.095993 14.3601 15.3743 0.109525 6.93838 19.3161 -0.129314 9.15825 19.3161 -0.129314
9.15826 22.7127 -0.125355 10.7744 24.4746 -0.11708 11.3842 23.741 -0.123317 10.9684
31.1956 0.0943663 14.3679 30.733 0.0965618 14.8815 29.8477 0.0905469 14.2838 30.7331
0.0921939 14.0736 17.3833 0.0921601 13.0649 17.6199 0.120127 13.3396 20.835 0.2076
9.10713 20.0401 0.208348 9.25598 20.1698 0.205066 9.32189 21.1037 0.200584 9.24072
22.4571 0.0358437 12.8507 21.9577 0.034544 12.8001 20.5109 0.0608746 11.904 21.3637
0.0566944 12.1967 19.3161 -0.129314 9.15824 17.9332 0.13776 10.4837 16.8251 0.151464
9.88671 15.2426 0.166484 9.65054 15.4122 0.150579 9.57917 17.8805 0.130712 9.88245
18.044 0.131637 10.332 17.5573 0.129389 10.6112 17.4077 0.128873 10.0817 25
0 0 25 0 0 26.5316 -0.086499 0.22875 26.4458 -0.0873672
0.228472 26.6397 -0.147476 4.37666 26.7691 -0.145889 4.37864 25.374 -0.00459211 -0.00770982
25.9559 -0.0125583 -0.00633097 25 0 0 25 0 0 29.1206
-0.100147 2.94714 29.2333 -0.0960729 2.73444 28.2027 -0.0340764 -0.694793 28.565 -0.0404947
-0.421248 28.9923 -0.10413 3.14525 26.7833 -0.145715 4.37886 27.4438 -0.0300105 -0.0503846
27.5779 -0.0338672 -0.0170733 25.0486 -0.000557921 -0.00166654 25 0 0 26.4095
-0.0105922 -0.758898 26.4112 -0.0106088 -0.754584 26.0809 -0.00690845 -0.651037 26.0804 -0.00690414
-0.651777 27.8259 -0.028375 -0.877235 17.6675 0.0821892 3.57414 17.151 0.0810301 3.72867
17.2587 0.0799206 3.51157 16.8831 0.0504718 1.25062 16.9002 0.0483831 1.06322 17.0596
0.048832 1.04908 17.0425 0.050943 1.22153 18.8666 0.0618935 1.35196 19.1308 0.0645723
1.45635 18.9306 0.0674356 1.70883 18.6649 0.0647594 1.59949 19.0458 -0.131145 8.92164
23.2341 -0.127293 10.6548 27.2852 -0.0262548 -0.0784116 23.5625 0.0311777 0.584117 23.6813
0.0285531 0.574376 23.99 0.0166929 -0.175394 23.7165 0.022285 -0.0871872 22.6046 0.0452901
0.432689 19.0458 -0.131145 8.92164 17.8775 0.0871075 3.98774 17.726 0.0895527 4.33406
19.7407 0.126506 6.12153 19.3592 0.124284 6.30775 16.2398 0.107139 6.75742 20.1447
0.144116 8.11056 20.3549 0.147557 8.48189 19.9786 0.144833 8.96599 19.7339 0.14147
8.53895 18.8131 0.143136 10.576 19.5325 0.13635 11.0762 18.2771 0.132624 9.67129
18.4362 0.1338 10.0444 20.1165 0.131483 6.26211 20.1663 0.135127 6.62378 22.4447
0.141127 5.73309 22.542 0.144008 5.87257 22.4067 0.148995 6.2243 22.2981 0.145993
6.07557 21.7683 0.12341 4.74872 21.9694 0.119956 4.50745 22.009 0.123058 4.70067
21.8119 0.126775 4.95876 29.0065 -0.0996666 13.2665 26.4256 -0.187462 8.78974 26.6702
-0.182454 8.82561 26.6373 -0.178674 9.40595 26.3789 -0.184016 9.36422 28.4079 -0.154095
8.67717 28.4758 -0.149939 9.28205 17.586 0.0679307 13.0544 23.8972 -0.109729 12.3899
24.0321 -0.135049 12.0465 24.1579 -0.128716 12.1801 24.0112 -0.104771 12.5272 22.9791
0.0201883 13.1232 22.7795 0.0175722 13.2276 17.3747 0.115049 7.21785 17.9067 0.11811
7.1809 17.8018 0.121381 7.73881 17.4817 0.120111 7.83332 17.1713 0.118539 7.7934
17.2231 0.116574 7.49763 17.7726 0.129437 9.44642 17.3275 0.127779 9.59215 25.7946
-0.112197 11.7037 26.5217 -0.105538 12.1063 29.0342 -0.127036 11.11 29.4414 -0.124487
11.0441 29.4522 -0.1169 11.6801 29.0362 -0.118975 11.7421 30.8736 -0.117162 10.7387
30.956 -0.113338 11.1253 30.6656 -0.114584 11.1764 30.6198 -0.117974 10.8579 23.8666
-0.0387464 15.0168 23.6221 -0.0362009 15.0694 21.5116 -0.00879891 14.6405 22.0793 -0.0159652
14.6706 22.527 -0.0062224 14.1034 22.5936 0.0251133 14.6155 21.947 0.0100343 14.41
22.4545 -0.0139442 14.2897 26.6092 -0.0896281 12.5577 27.8237 -0.08958 12.9235 27.5338
-0.08939 12.913 25.8997 -0.0922686 12.4276 31.4259 0.0763551 9.62022 31.3674 0.0770435