# vtk DataFile Version 2.0
track0
ASCII
DATASET POLYDATA
POINTS 15780 float
-1.001 -0.05 0.0011
-1.0008 -0.05 0.0011
-1.0006 -0.05 0.0011
-1.0004 -0.05 0.0011
-1.0002 -0.05 0.0011
-1 -0.05 0.0011
-0.9875 -0.05 0.0011
-0.975 -0.05 0.0011
-0.9625 -0.05 0.0011
-0.95 -0.05 0.0011
-0.9375 -0.05 0.00109999
-0.925 -0.05 0.00109999
-0.9125 -0.05 0.00109999
-0.9 -0.05 0.00109999
-0.8875 -0.05 0.00109999
-0.875 -0.05 0.00109999
-0.8625 -0.05 0.00109999
-0.85 -0.05 0.00109999
-0.8375 -0.05 0.00109998
-0.825 -0.0500001 0.00109998
-0.8125 -0.0500001 0.00109998
-0.8 -0.0500001 0.00109998
-0.7875 -0.0500001 0.00109998
-0.775 -0.0500001 0.00109998
-0.7625 -0.0500001 0.00109998
-0.75 -0.0500001 0.00109998
-0.7375 -0.0500001 0.00109997
-0.725 -0.0500001 0.00109997
-0.7125 -0.0500001 0.00109997
-0.7 -0.0500001 0.00109997
-0.6875 -0.0500001 0.00109997
-0.675 -0.0500001 0.00109997
-0.6625 -0.0500001 0.00109997
-0.65 -0.0500001 0.00109996
-0.6375 -0.0500001 0.00109996
-0.625 -0.0500001 0.00109996
-0.6125 -0.0500001 0.00109996
-0.6 -0.0500001 0.00109996
-0.5875 -0.0500001 0.00109996
-0.575 -0.0500001 0.00109996
-0.5625 -0.0500001 0.00109996
-0.55 -0.0500001 0.00109995
-0.5375 -0.0500001 0.00109995
-0.525 -0.0500001 0.00109995
-0.5125 -0.0500001 0.00109995
-0.5 -0.0500001 0.00109995
-0.4875 -0.0500001 0.00109995
-0.475 -0.0500001 0.00109995
-0.4625 -0.0500001 0.00109994
-0.45 -0.0500002 0.00109994
-0.4375 -0.0500002 0.00109994
-0.425 -0.0500002 0.00109994
-0.4125 -0.0500002 0.00109994
-0.4 -0.0500002 0.00109994
-0.3875 -0.0500002 0.00109994
-0.375 -0.0500002 0.00109994
-0.3625 -0.0500002 0.00109993
-0.35 -0.0500002 0.00109993
-0.3375 -0.0500002 0.00109993
-0.325 -0.0500002 0.00109993
-0.3125 -0.0500002 0.00109993
-0.3 -0.0500002 0.00109993
-0.2875 -0.0500002 0.00109993
-0.275 -0.0500002 0.00109993
-0.2625 -0.0500002 0.00109992
-0.25 -0.0500002 0.00109992
-0.2375 -0.0500002 0.00109992
-0.225 -0.0500002 0.00109992
-0.2125 -0.0500002 0.00109992
-0.2 -0.0500002 0.00109992
-0.1875 -0.0500002 0.00109992
-0.175 -0.0500002 0.00109992
-0.1625 -0.0500002 0.00109991
-0.15 -0.0500002 0.00109991
-0.1375 -0.0500002 0.00109991
-0.125 -0.0500002 0.00109991
-0.1125 -0.0500002 0.00109991
-0.1 -0.0500002 0.00109991
-0.0875 -0.0500002 0.00109991
-0.075 -0.0500002 0.00109991
-0.0625 -0.0500002 0.00109991
-0.05 -0.0500003 0.00109991
-0.0375 -0.0500003 0.0010999
-0.025 -0.0500003 0.0010999
-0.0125 -0.0500003 0.0010999
2.10607e-13 -0.0500003 0.0010999
0.0125 -0.0500003 0.0010999
0.025 -0.0500003 0.0010999
0.0375 -0.0500003 0.0010999
0.05 -0.0500003 0.0010999
0.0625 -0.0500003 0.0010999
0.075 -0.0500003 0.0010999
0.0875 -0.0500003 0.0010999
0.1 -0.0500003 0.00109989
0.1125 -0.0500003 0.00109989
0.125 -0.0500003 0.00109989
0.1375 -0.0500003 0.00109989
0.15 -0.0500003 0.00109989
0.1625 -0.0500003 0.00109989
0.175 -0.0500003 0.00109989
0.1875 -0.0500003 0.00109989
0.2 -0.0500003 0.00109989
0.2125 -0.0500003 0.00109989
0.225 -0.0500003 0.00109989
0.2375 -0.0500003 0.00109989
0.25 -0.0500003 0.00109989
0.2625 -0.0500003 0.00109988
0.275 -0.0500003 0.00109988
0.2875 -0.0500003 0.00109988
0.3 -0.0500003 0.00109988
0.3125 -0.0500003 0.00109988
0.325 -0.0500003 0.00109988
0.3375 -0.0500003 0.00109988
0.35 -0.0500003 0.00109988
0.3625 -0.0500003 0.00109988
0.375 -0.0500003 0.00109988
0.3875 -0.0500003 0.00109988
0.4 -0.0500004 0.00109988
0.4125 -0.0500004 0.00109988
0.425 -0.0500004 0.00109988
0.4375 -0.0500004 0.00109988
0.45 -0.0500004 0.00109988
0.4625 -0.0500004 0.00109988
0.475 -0.0500004 0.00109988
0.4875 -0.0500004 0.00109988
0.5 -0.0500004 0.00109988
0.5125 -0.0500004 0.00109988
0.525 -0.0500004 0.00109988
0.5375 -0.0500004 0.00109988
0.55 -0.0500004 0.00109988
0.5625 -0.0500004 0.00109988
0.575 -0.0500004 0.00109987
0.5875 -0.0500004 0.00109987
0.6 -0.0500004 0.00109987
0.6125 -0.0500004 0.00109987
0.625 -0.0500004 0.00109987
0.6375 -0.0500004 0.00109987
0.65 -0.0500004 0.00109987
0.6625 -0.0500004 0.00109987
0.675 -0.0500004 0.00109987
0.6875 -0.0500004 0.00109987
0.7 -0.0500004 0.00109987
0.7125 -0.0500004 0.00109987
0.725 -0.0500004 0.00109987
0.7375 -0.0500004 0.00109987
0.75 -0.0500004 0.00109987
0.7625 -0.0500004 0.00109987
0.775 -0.0500004 0.00109987
0.7875 -0.0500004 0.00109987
0.8 -0.0500004 0.00109987
0.8125 -0.0500004 0.00109987
0.825 -0.0500004 0.00109987
0.8375 -0.0500004 0.00109987
0.85 -0.0500004 0.00109987
0.8625 -0.0500004 0.00109987
0.875 -0.0500004 0.00109987
0.8875 -0.0500004 0.00109987
0.9 -0.0500004 0.00109987
0.9125 -0.0500005 0.00109988
0.925 -0.0500005 0.00109988
0.9375 -0.0500005 0.00109988
0.95 -0.0500005 0.00109988
0.9625 -0.0500005 0.00109988
0.975 -0.0500005 0.00109988
0.9875 -0.0500005 0.00109988
1 -0.0500005 0.00109988
1.0125 -0.0500005 0.00109988
1.025 -0.0500005 0.00109988
1.0375 -0.0500005 0.00109988
1.05 -0.0500005 0.00109988
1.0625 -0.0500005 0.00109988
1.075 -0.0500005 0.00109988
1.0875 -0.0500005 0.00109988
1.1 -0.0500005 0.00109988
1.1125 -0.0500005 0.00109988
1.125 -0.0500005 0.00109988
1.1375 -0.0500005 0.00109988
1.15 -0.0500005 0.00109988
1.1625 -0.0500005 0.00109988
1.175 -0.0500005 0.00109988
1.1875 -0.0500005 0.00109988
1.2 -0.0500005 0.00109988
1.2125 -0.0500005 0.00109988
1.225 -0.0500005 0.00109988
1.2375 -0.0500005 0.00109989
1.25 -0.0500005 0.00109989
1.2625 -0.0500005 0.00109989
1.275 -0.0500005 0.00109989
1.2875 -0.0500005 0.00109989
1.3 -0.0500005 0.00109989
1.3125 -0.0500005 0.00109989
1.325 -0.0500005 0.00109989
1.3375 -0.0500005 0.00109989
1.35 -0.0500005 0.00109989
1.3625 -0.0500005 0.00109989
1.375 -0.0500005 0.00109989
1.3875 -0.0500005 0.00109989
1.4 -0.0500005 0.00109989
1.4125 -0.0500005 0.00109989
1.425 -0.0500005 0.00109989
1.4375 -0.0500005 0.0010999
1.45 -0.0500005 0.0010999
1.4625 -0.0500005 0.0010999
1.475 -0.0500005 0.0010999
1.4875 -0.0500005 0.0010999
1.5 -0.0500006 0.0010999
1.5125 -0.0500006 0.0010999
1.525 -0.0500006 0.0010999
1.5375 -0.0500006 0.0010999
1.55 -0.0500006 0.0010999
1.5625 -0.0500006 0.0010999
1.575 -0.0500006 0.0010999
1.5875 -0.0500006 0.0010999
1.6 -0.0500006 0.0010999
1.6125 -0.0500006 0.00109991
1.625 -0.0500006 0.00109991
1.6375 -0.0500006 0.00109991
1.65 -0.0500006 0.00109991
1.6625 -0.0500006 0.00109991
1.675 -0.0500006 0.00109991
1.6875 -0.0500006 0.00109991
1.7 -0.0500006 0.00109991
1.7125 -0.0500006 0.00109991
1.725 -0.0500006 0.00109991
1.7375 -0.0500006 0.00109991
1.75 -0.0500006 0.00109991
1.7625 -0.0500006 0.00109992
1.775 -0.0500006 0.00109992
1.7875 -0.0500006 0.00109992
1.8 -0.0500006 0.00109992
1.8125 -0.0500006 0.00109992
1.825 -0.0500006 0.00109992
1.8375 -0.0500006 0.00109992
1.85 -0.0500006 0.00109992
1.8625 -0.0500006 0.00109992
1.875 -0.0500006 0.00109992
1.8875 -0.0500006 0.00109992
1.9 -0.0500006 0.00109992
1.9125 -0.0500006 0.00109993
1.925 -0.0500006 0.00109993
1.9375 -0.0500006 0.00109993
1.95 -0.0500006 0.00109993
1.9625 -0.0500006 0.00109993
1.975 -0.0500006 0.00109993
1.9875 -0.0500006 0.00109993
2 -0.0500006 0.00109993
2.0125 -0.0500006 0.00109993
2.025 -0.0500006 0.00109993
2.0375 -0.0500006 0.00109993
2.05 -0.0500006 0.00109993
2.0625 -0.0500006 0.00109993
2.075 -0.0500006 0.00109994
2.0875 -0.0500006 0.00109994
2.1 -0.0500006 0.00109994
2.1125 -0.0500006 0.00109994
2.125 -0.0500006 0.00109994
2.1375 -0.0500006 0.00109994
2.15 -0.0500006 0.00109994
2.1625 -0.0500006 0.00109994
2.175 -0.0500007 0.00109994
2.1875 -0.0500007 0.00109994
2.2 -0.0500007 0.00109994
2.2125 -0.0500007 0.00109994
2.225 -0.0500007 0.00109995
2.2375 -0.0500007 0.00109995
2.25 -0.0500007 0.00109995
2.2625 -0.0500007 0.00109995
2.275 -0.0500007 0.00109995
2.2875 -0.0500007 0.00109995
2.3 -0.0500007 0.00109995
2.3125 -0.0500007 0.00109995
2.325 -0.0500007 0.00109995
2.3375 -0.0500007 0.00109995
2.35 -0.0500007 0.00109995
2.3625 -0.0500007 0.00109995
2.375 -0.0500007 0.00109995
2.3875 -0.0500007 0.00109996
2.4 -0.0500007 0.00109996
2.4125 -0.0500007 0.00109996
2.425 -0.0500007 0.00109996
2.4375 -0.0500007 0.00109996
2.45 -0.0500007 0.00109996
2.4625 -0.0500007 0.00109996
2.475 -0.0500007 0.00109996
2.4875 -0.0500007 0.00109996
2.5 -0.0500007 0.00109996
2.5125 -0.0500007 0.00109996
2.525 -0.0500007 0.00109996
2.5375 -0.0500007 0.00109996
2.55 -0.0500007 0.00109996
2.5625 -0.0500007 0.00109997
2.575 -0.0500007 0.00109997
2.5875 -0.0500007 0.00109997
2.6 -0.0500007 0.00109997
2.6125 -0.0500007 0.00109997
2.625 -0.0500007 0.00109997
2.6375 -0.0500007 0.00109997
2.65 -0.0500007 0.00109997
2.6625 -0.0500007 0.00109997
2.675 -0.0500007 0.00109997
2.6875 -0.0500007 0.00109997
2.7 -0.0500007 0.00109997
2.7125 -0.0500007 0.00109997
2.725 -0.0500007 0.00109997
2.7375 -0.0500007 0.00109997
2.75 -0.0500007 0.00109997
2.7625 -0.0500007 0.00109998
2.775 -0.0500007 0.00109998
2.7875 -0.0500007 0.00109998
2.8 -0.0500007 0.00109998
2.8125 -0.0500007 0.00109998
2.825 -0.0500007 0.00109998
2.8375 -0.0500007 0.00109998
2.85 -0.0500007 0.00109998
2.8625 -0.0500008 0.00109998
2.875 -0.0500008 0.00109998
2.8875 -0.0500008 0.00109998
2.9 -0.0500008 0.00109998
2.9125 -0.0500008 0.00109998
2.925 -0.0500008 0.00109998
2.9375 -0.0500008 0.00109998
2.95 -0.0500008 0.00109998
2.9625 -0.0500008 0.00109998
2.975 -0.0500008 0.00109998
2.9875 -0.0500008 0.00109998
3 -0.0500008 0.00109998
3.0125 -0.0500008 0.00109999
3.025 -0.0500008 0.00109999
3.0375 -0.0500008 0.00109999
3.05 -0.0500008 0.00109999
3.0625 -0.0500008 0.00109999
3.075 -0.0500008 0.00109999
3.0875 -0.0500008 0.00109999
3.1 -0.0500008 0.00109999
3.1125 -0.0500008 0.00109999
3.125 -0.0500008 0.00109999
3.1375 -0.0500008 0.00109999
3.15 -0.0500008 0.00109999
3.1625 -0.0500008 0.00109999
3.175 -0.0500008 0.00109999
3.1875 -0.0500008 0.00109999
3.2 -0.0500008 0.00109999
3.2125 -0.0500008 0.00109999
3.225 -0.0500008 0.00109999
3.2375 -0.0500008 0.00109999
3.25 -0.0500008 0.00109999
3.2625 -0.0500008 0.00109999
3.275 -0.0500008 0.00109999
3.2875 -0.0500008 0.00109999
3.3 -0.0500008 0.00109999
3.3125 -0.0500008 0.00109999
3.325 -0.0500008 0.00109999
3.3375 -0.0500008 0.00109999
3.35 -0.0500008 0.0011
3.3625 -0.0500008 0.0011
[...]
POINT_DATA 15780
 FIELD attributes 2
p 1 15780 float
-0.0310981 -0.0311141 -0.0311301 -0.0311462 -0.0311622 -0.0311783 -0.0321097 -0.0330335 -0.0339572 -0.034881 -0.0359014 -0.0369653 -0.0380316 -0.039098 -0.0401643 -0.041184 -0.0421675 -0.0431323 -0.0440971 -0.0450619 -0.045975 -0.0468729 -0.0477754 -0.048678 -0.0495805 -0.0504773 -0.0513779 -0.0522794 -0.0531809 -0.0540824 -0.0549832 -0.0558907 -0.0567987 -0.0577067 -0.0586146 -0.0595221 -0.0604217 -0.0613192 -0.0622167 -0.0631142 -0.0640088 -0.0648878 -0.065765 -0.0666421 -0.0675193 -0.0683943 -0.0692517 -0.070107 -0.0709624 -0.0718177 -0.072671 -0.0735057 -0.0743377 -0.0751698 -0.0760018 -0.0768315 -0.0776398 -0.078445 -0.0792501 -0.0800553 -0.0808576 -0.0816357 -0.08241 -0.0831843 -0.0839585 -0.0847292 -0.0854733 -0.0862133 -0.0869532 -0.0876932 -0.0884293 -0.0891366 -0.0898392 -0.0905417 -0.0912443 -0.0919422 -0.0926095 -0.0932717 -0.0939338 -0.094596 -0.0952532 -0.0958776 -0.0964965 -0.0971153 -0.0977342 -0.0983475 -0.0989264 -0.0994996 -0.100073 -0.100646 -0.101213 -0.101746 -0.102272 -0.102798 -0.103324 -0.103845 -0.104329 -0.104807 -0.105284 -0.105762 -0.106234 -0.106668 -0.107095 -0.107521 -0.107948 -0.108367 -0.108748 -0.109121 -0.109493 -0.109866 -0.110231 -0.110556 -0.110873 -0.11119 -0.111507 -0.111816 -0.112085 -0.112345 -0.112605 -0.112865 -0.113117 -0.113328 -0.113531 -0.113733 -0.113936 -0.114131 -0.114283 -0.114427 -0.114571 -0.114715 -0.114851 -0.114944 -0.115029 -0.115115 -0.1152 -0.115278 -0.115314 -0.115343 -0.115372 -0.1154 -0.115422 -0.115404 -0.115378 -0.115353 -0.115327 -0.115295 -0.115224 -0.115146 -0.115069 -0.114991 -0.114906 -0.114783 -0.114654 -0.114524 -0.114395 -0.114258 -0.114084 -0.113903 -0.113722 -0.11354 -0.113352 -0.113128 -0.112898 -0.112667 -0.112437 -0.112199 -0.111929 -0.111652 -0.111375 -0.111099 -0.110815 -0.110501 -0.11018 -0.109859 -0.109539 -0.109211 -0.108855 -0.108492 -0.10813 -0.107767 -0.107398 -0.107002 -0.1066 -0.106198 -0.105796 -0.105389 -0.104955 -0.104517 -0.104079 -0.10364 -0.103197 -0.10273 -0.10226 -0.101789 -0.101319 -0.100844 -0.10035 -0.0998516 -0.0993535 -0.0988555 -0.0983533 -0.0978344 -0.097312 -0.0967895 -0.0962671 -0.0957408 -0.0951999 -0.0946555 -0.0941111 -0.0935668 -0.0930187 -0.0924577 -0.091894 -0.0913302 -0.0907664 -0.0901995 -0.0896218 -0.0890416 -0.0884615 -0.0878813 -0.0872982 -0.0867067 -0.0861133 -0.0855199 -0.0849265 -0.0843308 -0.083729 -0.0831254 -0.0825219 -0.0819184 -0.0813128 -0.0807031 -0.0800923 -0.0794815 -0.0788707 -0.0782584 -0.077644 -0.0770286 -0.0764132 -0.0757978 -0.0751811 -0.0745641 -0.0739467 -0.0733293 -0.0727119 -0.0720937 -0.071477 -0.07086 -0.070243 -0.069626 -0.0690085 -0.0683939 -0.0677796 -0.0671652 -0.0665509 -0.0659365 -0.0653264 -0.0647168 -0.0641071 -0.0634974 -0.0628877 -0.0622838 -0.0616806 -0.0610774 -0.0604741 -0.0598714 -0.0592756 -0.0586805 -0.0580855 -0.0574905 -0.0568961 -0.0563096 -0.0557244 -0.0551391 -0.0545538 -0.0539696 -0.0533941 -0.05282 -0.0522459 -0.0516718 -0.0510987 -0.0505354 -0.0499736 -0.0494118 -0.04885 -0.0482897 -0.0477397 -0.0471913 -0.046643 -0.0460946 -0.0455477 -0.0450118 -0.0444777 -0.0439437 -0.0434097 -0.0428774 -0.0423565 -0.0418376 -0.0413186 -0.0407997 -0.0402825 -0.0397772 -0.039274 -0.0387708 -0.0382676 -0.0377663 -0.0372772 -0.0367903 -0.0363033 -0.0358163 -0.0353314 -0.0348587 -0.0343884 -0.033918 -0.0334477 -0.0329795 -0.0325238 -0.0320703 -0.0316168 -0.0311634 -0.0307121 -0.0302733 -0.0298369 -0.0294004 -0.028964 -0.0285299 -0.0281082 -0.0276889 -0.0272696 -0.0268502 -0.0264333 -0.0260286 -0.0256264 -0.0252241 -0.0248219 -0.0244221 -0.0240345 -0.0236494 -0.0232643 -0.0228792 -0.0224965 -0.0221261 -0.0217582 -0.0213903 -0.0210225 -0.020657 -0.0203038 -0.0199531 -0.0196023 -0.0192516 -0.0189032 -0.0185665 -0.0182325 -0.0178985 -0.0175644 -0.0172329 -0.0169125 -0.0165946 -0.0162767 -0.0159588 -0.0156434 -0.0153388 -0.0150365 -0.0147342 -0.0144319 -0.0141321 -0.0138427 -0.0135556 -0.0132686 -0.0129815 -0.012697 -0.0124227 -0.0121506 -0.0118785 -0.0116064 -0.0113366 -0.0110769 -0.0108195 -0.010562 -0.0103046 -0.0100494 -0.00980407 -0.00956091 -0.00931775 -0.00907459 -0.00883364 -0.00860216 -0.00837272 -0.00814329 -0.00791385 -0.0076865 -0.00746814 -0.0072519 -0.00703565 -0.0068194 -0.00660523 -0.0063997 -0.0061962 -0.0059927 -0.0057892 -0.0055877 -0.00539448 -0.00520336 -0.00501225 -0.00482113 -0.00463212 -0.00445107 -0.00427214 -0.0040932 -0.00391427 -0.00373738 -0.00356814 -0.00340096 -0.00323378 -0.0030666 -0.00290146 -0.00274341 -0.00258723 -0.00243106 -0.00227488 -0.00212074 -0.00197322 -0.00182724 -0.00168126 -0.00153528 -0.00139107 -0.00125311 -0.00111675 -0.000980394 -0.000844034 -0.000709449 -0.000580773 -0.000453707 -0.00032664 -0.000199574 -7.41524e-05 4.55171e-05 0.000163571 0.000281625 0.000399679 0.000516115 0.000627103 0.000736505 0.000845907 0.000955309 0.00106309 0.00116582 0.00126702 0.00136821 0.0014694 0.001569 0.00166389 0.00175733 0.00185076 0.0019442 0.00203612 0.00212365 0.00220976 0.00229587 0.00238198 0.00246661 0.00254711 0.00262629 0.00270546 0.00278464 0.00286241 0.00293635 0.00300898 0.00308161 0.00315423 0.00322547 0.00329316 0.00335962 0.00342607 0.00349252 0.00355768 0.00361953 0.00368017 0.00374081 0.00380145 0.0038608 0.00391713 0.00397231 0.00402749 0.00408267 0.00413664 0.00418784 0.0042379 0.00428795 0.00433801 0.00438687 0.00443318 0.00447841 0.00452365 0.00456888 0.00461299 0.00465476 0.00469546 0.00473617 0.00477688 0.00481647 0.00485393 0.0048904 0.00492687 0.00496334 0.00499875 0.00503225 0.00506476 0.00509727 0.00512978 0.00516125 0.00519099 0.0052198 0.00524862 0.00527743 0.00530528 0.00533155 0.00535692 0.00538229 0.00540766 0.00543206 0.00545507 0.00547723 0.00549939 0.00552155 0.0055428 0.00556284 0.00558203 0.00560121 0.0056204 0.00563869 0.00565591 0.00567235 0.00568878 0.00570522 0.00572082 0.00573549 0.00574939 0.00576328 0.00577717 0.00579023 0.0058025 0.00581404 0.00582558 0.00583712 0.00584789 0.005858 0.00586737 0.00587675 0.00588613 0.00589474 0.00590281 0.0059102 0.00591759 0.00592499 0.00593166 0.00593791 0.00594348 0.00594906 0.00595463 0.00595949 0.00596403 0.00596795 0.00597187 0.00597579 0.00597903 0.00598208 0.00598449 0.0059869 0.00598931 0.00599105 0.00599269 0.00599373 0.00599477 0.00599582 0.00599623 0.00599663 0.00599643 0.00599624 0.00599604 0.00599522 0.00599445 0.00599315 0.00599184 0.00599054 0.00598865 0.00598691 0.00598462 0.00598233 0.00598004 0.00597717 0.00597452 0.00597135 0.00596818 0.00596501 0.0059613 0.00595787 0.00595393 0.00594998 0.00594604 0.00594155 0.00593743 0.00593282 0.00592821 0.0059236 0.00591847 0.00591379 0.00590861 0.00590344 0.00589826 0.00589257 0.00588739 0.00588174 0.00587609 0.00587045 0.00586431 0.00585875 0.00585271 0.00584668 0.00584065 0.00583414 0.00582825 0.00582192 0.00581559 0.00580926 0.00580247 0.00579636 0.00578981 0.00578326 0.00577671 0.00576971 0.00576344 0.00575675 0.00575006 0.00574337 0.00573624 0.0057299 0.00572315 0.00571639 0.00570963 0.00570245 0.0056961 0.00568935 0.00568259 0.00567584 0.00566867 0.00566239 0.00565571 0.00564903 0.00564235 0.00563526 0.00562911 0.00562257 0.00561603 0.00560948 0.00560254 0.00559658 0.00559024 0.0055839 0.00557755 0.00557082 0.00556512 0.00555903 0.00555295 0.00554686 0.00554039 0.005535 0.00552923 0.00552345 0.00551768 0.00551153 0.00550651 0.0055011 0.00549568 0.00549027 0.00548449 0.00547985 0.00547484 0.00546983 0.00546482 0.00545945 0.00545525 0.00545067 0.00544608 0.00544149 0.00543653 0.00543275 0.00542859 0.00542442 0.00542025 0.00541572 0.00541233 0.00540852 0.00540471 0.0054009 0.0053967 0.0053935 0.00538986 0.00538622 0.00538258 0.00537852 0.00537511 0.0053712 0.00536729 0.00536337 0.00535898 0.00535407 0.00534835 0.00534263 0.00533691 0.0053304 0.00532162 0.00531242 0.00530321 0.00529401 0.00528431 0.00525819 0.00522654 0.0051949 0.00516325 0.00512672 0.00511524 0.00511789 0.00512055 0.00512321 0.00514883 0.00523244 0.00530848 0.00538786 0.00545083 0.00549645 0.00548943 0.0054856 0.00548177 0.00547797 0.00547644 0.00550333 0.00553101 0.0055587 0.00557838 0.00559935 0.00561329 0.00563214 0.00565103 0.00566991 0.00568424 0.00574713 0.00581215 0.00587717 0.00594218 0.00599869 0.00609013 0.00616624 0.00624235 0.00631846 0.00632361 0.00630898 0.0062896 0.00627022 0.00625084 0.00624096 0.0060401 0.00581854 0.00559697 0.00537541 0.00504803 0.00456803 0.00407414 0.00358025 0.00308636 0.00262225 0.00235248 0.00207516 0.00179784 0.00152052 0.00127316 0.00117455 0.0010695 0.000964454 0.000859408 0.00077374 0.000667804 0.000556311 0.000444818 0.000333324 0.000255314
-0.0319474 -0.0319665 -0.0319856 -0.0320047 -0.0320238 -0.0320429 -0.0327438 -0.0336215 -0.0344041 -0.0351666 -0.0362248 -0.0372616 -0.0382519 -0.0392544 -0.0403138 -0.0412978 -0.042259 -0.043225 -0.0441656 -0.0451009 -0.0460068 -0.0469049 -0.0478109 -0.0487168 -0.049622 -0.050527 -0.0514188 -0.0523225 -0.0532312 -0.0541409 -0.0550613 -0.0559664 -0.0568787 -0.0577904 -0.0586999 -0.059615 -0.0605163 -0.0614147 -0.0623143 -0.0632141 -0.0641103 -0.0649914 -0.0658714 -0.066751 -0.0676286 -0.0685044 -0.0693626 -0.0702183 -0.0710765 -0.0719353 -0.0727918 -0.0736258 -0.0744612 -0.0752961 -0.0761284 -0.0769621 -0.0777694 -0.0785747 -0.0793825 -0.0801907 -0.0809974 -0.0817731 -0.0825503 -0.083327 -0.0841014 -0.0848773 -0.0856181 -0.0863581 -0.0871004 -0.0878431 -0.0885855 -0.0892879 -0.0899931 -0.0906978 -0.0914004 -0.0921059 -0.0927672 -0.0934293 -0.0940935 -0.0947581 -0.0954239 -0.0960408 -0.0966619 -0.0972826 -0.0979013 -0.0985241 -0.0990931 -0.0996661 -0.100241 -0.100816 -0.101395 -0.101914 -0.102442 -0.102969 -0.103495 -0.10403 -0.104502 -0.10498 -0.105458 -0.105937 -0.106421 -0.106844 -0.107271 -0.107698 -0.108124 -0.108556 -0.108925 -0.109298 -0.109671 -0.110043 -0.110419 -0.110734 -0.11105 -0.111366 -0.111683 -0.112002 -0.112261 -0.112521 -0.112781 -0.11304 -0.1133 -0.113502 -0.113704 -0.113906 -0.114109 -0.114311 -0.114455 -0.114599 -0.114743 -0.114887 -0.115029 -0.115112 -0.115198 -0.115283 -0.115368 -0.115456 -0.11548 -0.115509 -0.115537 -0.115566 -0.1156 -0.115567 -0.115541 -0.115515 -0.11549 -0.11547 -0.115386 -0.115308 -0.115228 -0.115148 -0.115075 -0.114939 -0.114806 -0.114674 -0.114544 -0.114416 -0.11423 -0.114048 -0.113864 -0.113679 -0.113499 -0.113264 -0.11303 -0.112796 -0.112565 -0.112336 -0.112054 -0.111777 -0.111497 -0.111216 -0.11094 -0.110615 -0.110291 -0.109967 -0.109646 -0.109325 -0.10896 -0.108597 -0.108232 -0.107867 -0.107503 -0.1071 -0.106696 -0.106292 -0.10589 -0.105487 -0.105046 -0.104608 -0.104168 -0.103728 -0.103289 -0.102813 -0.10234 -0.101867 -0.101396 -0.100928 -0.100423 -0.0999238 -0.0994227 -0.098921 -0.098426 -0.0978969 -0.0973707 -0.096845 -0.0963221 -0.0958018 -0.0952522 -0.0947075 -0.0941601 -0.0936122 -0.0930691 -0.0925006 -0.0919335 -0.091367 -0.0908028 -0.0902397 -0.0896551 -0.0890746 -0.0884918 -0.0879084 -0.087329 -0.0867312 -0.0861348 -0.0855388 -0.0849451 -0.0843524 -0.0837447 -0.0831409 -0.0825349 -0.0819285 -0.0813257 -0.0807109 -0.0800974 -0.0794842 -0.0788731 -0.078263 -0.0776438 -0.0770282 -0.0764106 -0.0757926 -0.0751779 -0.0745569 -0.0739371 -0.0733176 -0.0726999 -0.0720832 -0.0714628 -0.0708456 -0.0702268 -0.0696076 -0.0689914 -0.0683739 -0.0677576 -0.0671416 -0.066527 -0.0659135 -0.0653008 -0.064691 -0.0640798 -0.0634683 -0.0628594 -0.0622533 -0.0616485 -0.0610439 -0.0604405 -0.059838 -0.0592404 -0.0586453 -0.058049 -0.0574525 -0.0568583 -0.0562706 -0.055684 -0.0550976 -0.0545122 -0.0539278 -0.0533514 -0.0527772 -0.0522021 -0.0516268 -0.0510535 -0.0504896 -0.0499268 -0.0493642 -0.0488024 -0.0482415 -0.0476912 -0.0471428 -0.0465937 -0.0460445 -0.045497 -0.0449612 -0.0444264 -0.0438918 -0.0433577 -0.0428245 -0.042304 -0.041785 -0.0412656 -0.0407461 -0.040228 -0.0397233 -0.0392197 -0.0387161 -0.0382129 -0.0377105 -0.0372222 -0.0367353 -0.036248 -0.0357607 -0.0352747 -0.0348031 -0.0343325 -0.033862 -0.0333916 -0.0329221 -0.0324676 -0.0320142 -0.0315606 -0.031107 -0.0306545 -0.0302171 -0.0297806 -0.0293442 -0.0289078 -0.0284723 -0.0280522 -0.0276329 -0.0272136 -0.0267944 -0.0263761 -0.0259731 -0.025571 -0.0251689 -0.0247667 -0.0243654 -0.0239795 -0.0235944 -0.0232094 -0.0228245 -0.0224405 -0.0220715 -0.0217038 -0.0213362 -0.0209683 -0.0206017 -0.0202497 -0.0198991 -0.0195486 -0.0191981 -0.0188487 -0.0185133 -0.0181794 -0.0178455 -0.0175116 -0.0171789 -0.0168603 -0.0165425 -0.0162248 -0.015907 -0.0155903 -0.0152878 -0.0149859 -0.0146838 -0.0143817 -0.0140799 -0.0137934 -0.0135065 -0.0132198 -0.0129331 -0.0126462 -0.0123749 -0.0121032 -0.0118315 -0.0115595 -0.0112872 -0.0110302 -0.0107728 -0.0105157 -0.0102587 -0.0100012 -0.00975846 -0.00951576 -0.00927299 -0.00902988 -0.00878696 -0.00855797 -0.00832862 -0.00809968 -0.00787082 -0.00764147 -0.00742579 -0.00721026 -0.00699463 -0.0067785 -0.00656263 -0.00635954 -0.00615615 -0.00595328 -0.00575053 -0.00554749 -0.00535651 -0.00516614 -0.00497565 -0.00478462 -0.00459413 -0.00441498 -0.0042361 -0.00405763 -0.00387924 -0.00370121 -0.00353321 -0.00336626 -0.00319928 -0.00303213 -0.0028658 -0.00270918 -0.00255307 -0.00239706 -0.00224108 -0.00208575 -0.00194005 -0.00179447 -0.00164883 -0.00150297 -0.0013574 -0.00122198 -0.00108575 -0.000949909 -0.000814148 -0.000677626 -0.00055166 -0.000425258 -0.000298755 -0.0001718 -4.45576e-05 7.2715e-05 0.000190684 0.000308213 0.000425644 0.000543812 0.000652631 0.000761485 0.000870427 0.00097976 0.00108911 0.00118983 0.00129095 0.00139173 0.00149242 0.00159349 0.00168649 0.00177946 0.00187249 0.00196586 0.00205917 0.00214483 0.00223087 0.00231659 0.00240223 0.0024882 0.00256695 0.00264566 0.00272445 0.00280355 0.00288259 0.00295476 0.00302732 0.00309956 0.00317172 0.0032442 0.00331027 0.00337628 0.00344236 0.00350875 0.00357507 0.00363532 0.0036959 0.0037562 0.00381644 0.00387695 0.00393175 0.00398658 0.00404147 0.0040966 0.00415174 0.00420135 0.00425135 0.00430112 0.00435083 0.00440085 0.00444564 0.00449052 0.00453545 0.00458063 0.00462588 0.0046661 0.00470675 0.00474716 0.00478752 0.00482825 0.00486424 0.00490038 0.00493657 0.00497298 0.00500952 0.00504153 0.00507399 0.00510623 0.00513842 0.005171 0.00519933 0.00522783 0.00525639 0.00528516 0.00531409 0.00533894 0.00536427 0.00538939 0.00541447 0.00543995 0.00546162 0.0054835 0.00550543 0.00552755 0.00554987 0.00556853 0.00558768 0.00560664 0.00562557 0.00564491 0.00566084 0.00567702 0.00569324 0.00570963 0.00572626 0.00573962 0.00575347 0.00576716 0.0057808 0.00579488 0.00580591 0.00581722 0.00582856 0.00584007 0.00585184 0.00586068 0.00587002 0.00587921 0.00588837 0.00589798 0.00590484 0.00591202 0.00591924 0.0059266 0.00593426 0.00593927 0.00594482 0.00595022 0.0059556 0.00596145 0.00596483 0.00596855 0.00597231 0.0059762 0.00598043 0.00598227 0.00598465 0.00598691 0.00598914 0.00599187 0.00599236 0.00599324 0.00599414 0.00599515 0.00599654 0.00599576 0.00599553 0.0059952 0.00599484 0.00599499 0.0059931 0.00599165 0.00599021 0.00598888 0.00598797 0.0059851 0.00598279 0.00598038 0.00597794 0.00597602 0.00597229 0.00596898 0.00596569 0.0059625 0.00595971 0.0059552 0.00595123 0.00594718 0.0059431 0.00593954 0.00593437 0.00592964 0.00592493 0.0059203 0.0059161 0.00591035 0.00590516 0.00589989 0.0058946 0.00588983 0.00588362 0.00587787 0.00587213 0.00586647 0.00586126 0.00585465 0.0058486 0.00584249 0.00583636 0.00583076 0.00582386 0.00581744 0.00581103 0.00580468 0.00579881 0.00579168 0.00578511 0.00577849 0.00577186 0.00576577 0.0057585 0.00575173 0.00574497 0.00573827 0.00573207 0.00572472 0.00571795 0.00571113 0.0057043 0.00569803 0.0056907 0.00568388 0.00567707 0.00567031 0.00566406 0.00565678 0.00565009 0.00564336 0.00563662 0.00563045 0.00562332 0.00561673 0.00561014 0.00560358 0.00559757 0.00559063 0.00558427 0.00557789 0.0055715 0.00556569 0.00555902 0.0055529 0.00554678 0.00554069 0.00553516 0.00552878 0.00552301 0.00551721 0.00551141 0.0055062 0.0055002 0.00549478 0.00548936 0.00548394 0.00547913 0.00547351 0.0054685 0.00546349 0.00545849 0.00545409 0.00544892 0.00544438 0.00543982 0.00543524 0.00543131 0.00542655 0.00542239 0.00541831 0.00541424 0.00541079 0.00540642 0.00540283 0.0053992 0.00539541 0.00539243 0.00538827 0.00538468 0.00538145 0.0053783 0.00537574 0.00537142 0.00536861 0.00536561 0.00536183 0.00535956 0.00535423 0.00534898 0.00534599 0.00534353 0.0053411 0.00533206 0.00533033 0.00532741 0.00531947 0.00531844 0.00530412 0.00527955 0.00527505 0.00527527 0.00526454 0.00522164 0.00523321 0.00524359 0.00524886 0.00531697 0.00541044 0.00547401 0.00553759 0.00557557 0.00552927 0.00551005 0.00550301 0.00549598 0.00548848 0.00549248 0.00551003 0.0055282 0.00554637 0.00555808 0.00556935 0.0055704 0.00557146 0.00557251 0.00557344 0.00557413 0.00559897 0.00562793 0.00565697 0.00568601 0.0056594 0.00569755 0.0057602 0.00582322 0.00588624 0.00596623 0.00618051 0.00626953 0.00635199 0.00642811 0.00632119 0.00635705 0.00633767 0.00632122 0.00631176 0.00625638 0.00620984 0.00598827 0.00576671 0.00553257 0.00503896 0.00469934 0.00420544 0.00371155 0.00321499 0.00259617 0.00241454 0.00213722 0.0018599 0.00158258 0.00124276 0.00122364 0.0011186 0.00101355 0.000908506 0.000751309 0.000715292 0.000603801 0.00049231 0.000380819 0.000206787