# vtk DataFile Version 2.0
track0
ASCII
DATASET POLYDATA
POINTS 15780 float
-1.001 -0.05 0.0011
-1.0008 -0.05 0.0011
-1.0006 -0.05 0.0011
-1.0004 -0.05 0.0011
-1.0002 -0.05 0.0011
-1 -0.05 0.0011
-0.9875 -0.05 0.0011
-0.975 -0.05 0.0011
-0.9625 -0.05 0.0011
-0.95 -0.05 0.0011
-0.9375 -0.05 0.00109999
-0.925 -0.05 0.00109999
-0.9125 -0.05 0.00109999
-0.9 -0.05 0.00109999
-0.8875 -0.05 0.00109999
-0.875 -0.05 0.00109999
-0.8625 -0.05 0.00109999
-0.85 -0.05 0.00109999
-0.8375 -0.05 0.00109998
-0.825 -0.0500001 0.00109998
-0.8125 -0.0500001 0.00109998
-0.8 -0.0500001 0.00109998
-0.7875 -0.0500001 0.00109998
-0.775 -0.0500001 0.00109998
-0.7625 -0.0500001 0.00109998
-0.75 -0.0500001 0.00109998
-0.7375 -0.0500001 0.00109997
-0.725 -0.0500001 0.00109997
-0.7125 -0.0500001 0.00109997
-0.7 -0.0500001 0.00109997
-0.6875 -0.0500001 0.00109997
-0.675 -0.0500001 0.00109997
-0.6625 -0.0500001 0.00109997
-0.65 -0.0500001 0.00109996
-0.6375 -0.0500001 0.00109996
-0.625 -0.0500001 0.00109996
-0.6125 -0.0500001 0.00109996
-0.6 -0.0500001 0.00109996
-0.5875 -0.0500001 0.00109996
-0.575 -0.0500001 0.00109996
-0.5625 -0.0500001 0.00109996
-0.55 -0.0500001 0.00109995
-0.5375 -0.0500001 0.00109995
-0.525 -0.0500001 0.00109995
-0.5125 -0.0500001 0.00109995
-0.5 -0.0500001 0.00109995
-0.4875 -0.0500001 0.00109995
-0.475 -0.0500001 0.00109995
-0.4625 -0.0500001 0.00109994
-0.45 -0.0500002 0.00109994
-0.4375 -0.0500002 0.00109994
-0.425 -0.0500002 0.00109994
-0.4125 -0.0500002 0.00109994
-0.4 -0.0500002 0.00109994
-0.3875 -0.0500002 0.00109994
-0.375 -0.0500002 0.00109994
-0.3625 -0.0500002 0.00109993
-0.35 -0.0500002 0.00109993
-0.3375 -0.0500002 0.00109993
-0.325 -0.0500002 0.00109993
-0.3125 -0.0500002 0.00109993
-0.3 -0.0500002 0.00109993
-0.2875 -0.0500002 0.00109993
-0.275 -0.0500002 0.00109993
-0.2625 -0.0500002 0.00109992
-0.25 -0.0500002 0.00109992
-0.2375 -0.0500002 0.00109992
-0.225 -0.0500002 0.00109992
-0.2125 -0.0500002 0.00109992
-0.2 -0.0500002 0.00109992
-0.1875 -0.0500002 0.00109992
-0.175 -0.0500002 0.00109992
-0.1625 -0.0500002 0.00109991
-0.15 -0.0500002 0.00109991
-0.1375 -0.0500002 0.00109991
-0.125 -0.0500002 0.00109991
-0.1125 -0.0500002 0.00109991
-0.1 -0.0500002 0.00109991
-0.0875 -0.0500002 0.00109991
-0.075 -0.0500002 0.00109991
-0.0625 -0.0500002 0.00109991
-0.05 -0.0500003 0.00109991
-0.0375 -0.0500003 0.0010999
-0.025 -0.0500003 0.0010999
-0.0125 -0.0500003 0.0010999
2.10607e-13 -0.0500003 0.0010999
0.0125 -0.0500003 0.0010999
0.025 -0.0500003 0.0010999
0.0375 -0.0500003 0.0010999
0.05 -0.0500003 0.0010999
0.0625 -0.0500003 0.0010999
0.075 -0.0500003 0.0010999
0.0875 -0.0500003 0.0010999
0.1 -0.0500003 0.00109989
0.1125 -0.0500003 0.00109989
0.125 -0.0500003 0.00109989
0.1375 -0.0500003 0.00109989
0.15 -0.0500003 0.00109989
0.1625 -0.0500003 0.00109989
0.175 -0.0500003 0.00109989
0.1875 -0.0500003 0.00109989
0.2 -0.0500003 0.00109989
0.2125 -0.0500003 0.00109989
0.225 -0.0500003 0.00109989
0.2375 -0.0500003 0.00109989
0.25 -0.0500003 0.00109989
0.2625 -0.0500003 0.00109988
0.275 -0.0500003 0.00109988
0.2875 -0.0500003 0.00109988
0.3 -0.0500003 0.00109988
0.3125 -0.0500003 0.00109988
0.325 -0.0500003 0.00109988
0.3375 -0.0500003 0.00109988
0.35 -0.0500003 0.00109988
0.3625 -0.0500003 0.00109988
0.375 -0.0500003 0.00109988
0.3875 -0.0500003 0.00109988
0.4 -0.0500004 0.00109988
0.4125 -0.0500004 0.00109988
0.425 -0.0500004 0.00109988
0.4375 -0.0500004 0.00109988
0.45 -0.0500004 0.00109988
0.4625 -0.0500004 0.00109988
0.475 -0.0500004 0.00109988
0.4875 -0.0500004 0.00109988
0.5 -0.0500004 0.00109988
0.5125 -0.0500004 0.00109988
0.525 -0.0500004 0.00109988
0.5375 -0.0500004 0.00109988
0.55 -0.0500004 0.00109988
0.5625 -0.0500004 0.00109988
0.575 -0.0500004 0.00109987
0.5875 -0.0500004 0.00109987
0.6 -0.0500004 0.00109987
0.6125 -0.0500004 0.00109987
0.625 -0.0500004 0.00109987
0.6375 -0.0500004 0.00109987
0.65 -0.0500004 0.00109987
0.6625 -0.0500004 0.00109987
0.675 -0.0500004 0.00109987
0.6875 -0.0500004 0.00109987
0.7 -0.0500004 0.00109987
0.7125 -0.0500004 0.00109987
0.725 -0.0500004 0.00109987
0.7375 -0.0500004 0.00109987
0.75 -0.0500004 0.00109987
0.7625 -0.0500004 0.00109987
0.775 -0.0500004 0.00109987
0.7875 -0.0500004 0.00109987
0.8 -0.0500004 0.00109987
0.8125 -0.0500004 0.00109987
0.825 -0.0500004 0.00109987
0.8375 -0.0500004 0.00109987
0.85 -0.0500004 0.00109987
0.8625 -0.0500004 0.00109987
0.875 -0.0500004 0.00109987
0.8875 -0.0500004 0.00109987
0.9 -0.0500004 0.00109987
0.9125 -0.0500005 0.00109988
0.925 -0.0500005 0.00109988
0.9375 -0.0500005 0.00109988
0.95 -0.0500005 0.00109988
0.9625 -0.0500005 0.00109988
0.975 -0.0500005 0.00109988
0.9875 -0.0500005 0.00109988
1 -0.0500005 0.00109988
1.0125 -0.0500005 0.00109988
1.025 -0.0500005 0.00109988
1.0375 -0.0500005 0.00109988
1.05 -0.0500005 0.00109988
1.0625 -0.0500005 0.00109988
1.075 -0.0500005 0.00109988
1.0875 -0.0500005 0.00109988
1.1 -0.0500005 0.00109988
1.1125 -0.0500005 0.00109988
1.125 -0.0500005 0.00109988
1.1375 -0.0500005 0.00109988
1.15 -0.0500005 0.00109988
1.1625 -0.0500005 0.00109988
1.175 -0.0500005 0.00109988
1.1875 -0.0500005 0.00109988
1.2 -0.0500005 0.00109988
1.2125 -0.0500005 0.00109988
1.225 -0.0500005 0.00109988
1.2375 -0.0500005 0.00109989
1.25 -0.0500005 0.00109989
1.2625 -0.0500005 0.00109989
1.275 -0.0500005 0.00109989
1.2875 -0.0500005 0.00109989
1.3 -0.0500005 0.00109989
1.3125 -0.0500005 0.00109989
1.325 -0.0500005 0.00109989
1.3375 -0.0500005 0.00109989
1.35 -0.0500005 0.00109989
1.3625 -0.0500005 0.00109989
1.375 -0.0500005 0.00109989
1.3875 -0.0500005 0.00109989
1.4 -0.0500005 0.00109989
1.4125 -0.0500005 0.00109989
1.425 -0.0500005 0.00109989
1.4375 -0.0500005 0.0010999
1.45 -0.0500005 0.0010999
1.4625 -0.0500005 0.0010999
1.475 -0.0500005 0.0010999
1.4875 -0.0500005 0.0010999
1.5 -0.0500006 0.0010999
1.5125 -0.0500006 0.0010999
1.525 -0.0500006 0.0010999
1.5375 -0.0500006 0.0010999
1.55 -0.0500006 0.0010999
1.5625 -0.0500006 0.0010999
1.575 -0.0500006 0.0010999
1.5875 -0.0500006 0.0010999
1.6 -0.0500006 0.0010999
1.6125 -0.0500006 0.00109991
1.625 -0.0500006 0.00109991
1.6375 -0.0500006 0.00109991
1.65 -0.0500006 0.00109991
1.6625 -0.0500006 0.00109991
1.675 -0.0500006 0.00109991
1.6875 -0.0500006 0.00109991
1.7 -0.0500006 0.00109991
1.7125 -0.0500006 0.00109991
1.725 -0.0500006 0.00109991
1.7375 -0.0500006 0.00109991
1.75 -0.0500006 0.00109991
1.7625 -0.0500006 0.00109992
1.775 -0.0500006 0.00109992
1.7875 -0.0500006 0.00109992
1.8 -0.0500006 0.00109992
1.8125 -0.0500006 0.00109992
1.825 -0.0500006 0.00109992
1.8375 -0.0500006 0.00109992
1.85 -0.0500006 0.00109992
1.8625 -0.0500006 0.00109992
1.875 -0.0500006 0.00109992
1.8875 -0.0500006 0.00109992
1.9 -0.0500006 0.00109992
1.9125 -0.0500006 0.00109993
1.925 -0.0500006 0.00109993
1.9375 -0.0500006 0.00109993
1.95 -0.0500006 0.00109993
1.9625 -0.0500006 0.00109993
1.975 -0.0500006 0.00109993
1.9875 -0.0500006 0.00109993
2 -0.0500006 0.00109993
2.0125 -0.0500006 0.00109993
2.025 -0.0500006 0.00109993
2.0375 -0.0500006 0.00109993
2.05 -0.0500006 0.00109993
2.0625 -0.0500006 0.00109993
2.075 -0.0500006 0.00109994
2.0875 -0.0500006 0.00109994
2.1 -0.0500006 0.00109994
2.1125 -0.0500006 0.00109994
2.125 -0.0500006 0.00109994
2.1375 -0.0500006 0.00109994
2.15 -0.0500006 0.00109994
2.1625 -0.0500006 0.00109994
2.175 -0.0500007 0.00109994
2.1875 -0.0500007 0.00109994
2.2 -0.0500007 0.00109994
2.2125 -0.0500007 0.00109994
2.225 -0.0500007 0.00109995
2.2375 -0.0500007 0.00109995
2.25 -0.0500007 0.00109995
2.2625 -0.0500007 0.00109995
2.275 -0.0500007 0.00109995
2.2875 -0.0500007 0.00109995
2.3 -0.0500007 0.00109995
2.3125 -0.0500007 0.00109995
2.325 -0.0500007 0.00109995
2.3375 -0.0500007 0.00109995
2.35 -0.0500007 0.00109995
2.3625 -0.0500007 0.00109995
2.375 -0.0500007 0.00109995
2.3875 -0.0500007 0.00109996
2.4 -0.0500007 0.00109996
2.4125 -0.0500007 0.00109996
2.425 -0.0500007 0.00109996
2.4375 -0.0500007 0.00109996
2.45 -0.0500007 0.00109996
2.4625 -0.0500007 0.00109996
2.475 -0.0500007 0.00109996
2.4875 -0.0500007 0.00109996
2.5 -0.0500007 0.00109996
2.5125 -0.0500007 0.00109996
2.525 -0.0500007 0.00109996
2.5375 -0.0500007 0.00109996
2.55 -0.0500007 0.00109996
2.5625 -0.0500007 0.00109997
2.575 -0.0500007 0.00109997
2.5875 -0.0500007 0.00109997
2.6 -0.0500007 0.00109997
2.6125 -0.0500007 0.00109997
2.625 -0.0500007 0.00109997
2.6375 -0.0500007 0.00109997
2.65 -0.0500007 0.00109997
2.6625 -0.0500007 0.00109997
2.675 -0.0500007 0.00109997
2.6875 -0.0500007 0.00109997
2.7 -0.0500007 0.00109997
2.7125 -0.0500007 0.00109997
2.725 -0.0500007 0.00109997
2.7375 -0.0500007 0.00109997
2.75 -0.0500007 0.00109997
2.7625 -0.0500007 0.00109998
2.775 -0.0500007 0.00109998
2.7875 -0.0500007 0.00109998
2.8 -0.0500007 0.00109998
2.8125 -0.0500007 0.00109998
2.825 -0.0500007 0.00109998
2.8375 -0.0500007 0.00109998
2.85 -0.0500007 0.00109998
2.8625 -0.0500008 0.00109998
2.875 -0.0500008 0.00109998
2.8875 -0.0500008 0.00109998
2.9 -0.0500008 0.00109998
2.9125 -0.0500008 0.00109998
2.925 -0.0500008 0.00109998
2.9375 -0.0500008 0.00109998
2.95 -0.0500008 0.00109998
2.9625 -0.0500008 0.00109998
2.975 -0.0500008 0.00109998
2.9875 -0.0500008 0.00109998
3 -0.0500008 0.00109998
3.0125 -0.0500008 0.00109999
3.025 -0.0500008 0.00109999
3.0375 -0.0500008 0.00109999
3.05 -0.0500008 0.00109999
3.0625 -0.0500008 0.00109999
3.075 -0.0500008 0.00109999
3.0875 -0.0500008 0.00109999
3.1 -0.0500008 0.00109999
3.1125 -0.0500008 0.00109999
3.125 -0.0500008 0.00109999
3.1375 -0.0500008 0.00109999
3.15 -0.0500008 0.00109999
3.1625 -0.0500008 0.00109999
3.175 -0.0500008 0.00109999
3.1875 -0.0500008 0.00109999
3.2 -0.0500008 0.00109999
3.2125 -0.0500008 0.00109999
3.225 -0.0500008 0.00109999
3.2375 -0.0500008 0.00109999
3.25 -0.0500008 0.00109999
3.2625 -0.0500008 0.00109999
3.275 -0.0500008 0.00109999
3.2875 -0.0500008 0.00109999
3.3 -0.0500008 0.00109999
3.3125 -0.0500008 0.00109999
3.325 -0.0500008 0.00109999
3.3375 -0.0500008 0.00109999
3.35 -0.0500008 0.0011
3.3625 -0.0500008 0.0011
[...]
POINT_DATA 15780
 FIELD attributes 1
U 3 15780 float
30.0002 	-7.01776e-06 	-6.30587e-06 30.0002 	-6.84328e-06 	-6.51453e-06 30.0002 	-6.66879e-06 	-6.7232e-06 30.0002 	-6.4943e-06 	-6.93187e-06 30.0002 	-6.31982e-06 	-7.14054e-06 30.0002 	-6.14533e-06 	-7.3492e-06 30.0004 	-1.23849e-05 	-1.261e-06 30.0004 	-1.23849e-05 	-1.261e-06 30.0004 	-1.23849e-05 	-1.261e-06 30.0004 	-1.23849e-05 	-1.261e-06 30.0002 	-7.0381e-08 	-6.84366e-06 30.0005 	-1.07088e-05 	-1.68705e-06 30.0005 	-1.07088e-05 	-1.68705e-06 30.0005 	-1.07088e-05 	-1.68705e-06 30.0005 	-1.07088e-05 	-1.68704e-06 30.0002 	-7.20512e-08 	-6.59607e-06 30.0005 	-9.9582e-06 	-2.08022e-06 30.0005 	-9.95819e-06 	-2.08022e-06 30.0005 	-9.95818e-06 	-2.08022e-06 30.0005 	-9.95817e-06 	-2.08022e-06 30.0003 	-4.59293e-06 	-6.24725e-06 30.0005 	-9.69142e-06 	-2.34895e-06 30.0005 	-9.69141e-06 	-2.34895e-06 30.0005 	-9.6914e-06 	-2.34894e-06 30.0005 	-9.69139e-06 	-2.34894e-06 30.0003 	-7.56296e-08 	-6.57614e-06 30.0005 	-9.52321e-06 	-2.49782e-06 30.0005 	-9.5232e-06 	-2.49781e-06 30.0005 	-9.5232e-06 	-2.49781e-06 30.0005 	-9.52319e-06 	-2.49781e-06 30.0003 	-7.73796e-08 	-6.52625e-06 30.0005 	-9.38683e-06 	-2.55606e-06 30.0005 	-9.38682e-06 	-2.55605e-06 30.0005 	-9.38682e-06 	-2.55605e-06 30.0005 	-9.38681e-06 	-2.55605e-06 30.0003 	-4.26672e-06 	-6.08528e-06 30.0005 	-9.2794e-06 	-2.55829e-06 30.0005 	-9.27939e-06 	-2.55828e-06 30.0005 	-9.27938e-06 	-2.55828e-06 30.0005 	-9.27937e-06 	-2.55828e-06 30.0003 	-4.1991e-06 	-5.97788e-06 30.0006 	-9.18718e-06 	-2.53042e-06 30.0006 	-9.18717e-06 	-2.53042e-06 30.0006 	-9.18716e-06 	-2.53041e-06 30.0006 	-9.18715e-06 	-2.53041e-06 30.0003 	-8.2656e-08 	-6.20125e-06 30.0006 	-9.09709e-06 	-2.48117e-06 30.0006 	-9.09709e-06 	-2.48117e-06 30.0006 	-9.09708e-06 	-2.48117e-06 30.0006 	-9.09707e-06 	-2.48116e-06 30.0003 	-8.44029e-08 	-6.05422e-06 30.0006 	-9.00462e-06 	-2.4136e-06 30.0006 	-9.00462e-06 	-2.41359e-06 30.0006 	-9.00461e-06 	-2.41359e-06 30.0006 	-9.0046e-06 	-2.41359e-06 30.0003 	-8.61543e-08 	-5.88781e-06 30.0006 	-8.90847e-06 	-2.32972e-06 30.0006 	-8.90846e-06 	-2.32971e-06 30.0006 	-8.90846e-06 	-2.32971e-06 30.0006 	-8.90845e-06 	-2.32971e-06 30.0003 	-3.93766e-06 	-5.36346e-06 30.0006 	-8.80842e-06 	-2.23274e-06 30.0006 	-8.80841e-06 	-2.23274e-06 30.0006 	-8.80841e-06 	-2.23273e-06 30.0006 	-8.8084e-06 	-2.23273e-06 30.0003 	-3.86387e-06 	-5.16475e-06 30.0006 	-8.70412e-06 	-2.12414e-06 30.0006 	-8.70412e-06 	-2.12413e-06 30.0006 	-8.70411e-06 	-2.12413e-06 30.0006 	-8.7041e-06 	-2.12413e-06 30.0003 	-9.14079e-08 	-5.28457e-06 30.0006 	-8.59594e-06 	-2.00508e-06 30.0006 	-8.59594e-06 	-2.00507e-06 30.0006 	-8.59593e-06 	-2.00507e-06 30.0006 	-8.59592e-06 	-2.00507e-06 30.0003 	-3.70427e-06 	-4.7194e-06 30.0007 	-8.48457e-06 	-1.87668e-06 30.0007 	-8.48456e-06 	-1.87668e-06 30.0007 	-8.48455e-06 	-1.87668e-06 30.0007 	-8.48455e-06 	-1.87668e-06 30.0003 	-3.61917e-06 	-4.47431e-06 30.0007 	-8.37122e-06 	-1.73884e-06 30.0007 	-8.37122e-06 	-1.73884e-06 30.0007 	-8.37121e-06 	-1.73884e-06 30.0007 	-8.37121e-06 	-1.73884e-06 30.0004 	-9.66546e-08 	-4.54319e-06 30.0007 	-8.25969e-06 	-1.59804e-06 30.0007 	-8.25969e-06 	-1.59803e-06 30.0007 	-8.25968e-06 	-1.59803e-06 30.0007 	-8.25968e-06 	-1.59803e-06 30.0004 	-9.84091e-08 	-4.27124e-06 30.0007 	-8.14769e-06 	-1.46323e-06 30.0007 	-8.14768e-06 	-1.46323e-06 30.0007 	-8.14768e-06 	-1.46323e-06 30.0007 	-8.14767e-06 	-1.46323e-06 30.0004 	-1.00149e-07 	-3.98927e-06 30.0007 	-8.01962e-06 	-1.32073e-06 30.0007 	-8.01961e-06 	-1.32073e-06 30.0007 	-8.01961e-06 	-1.32073e-06 30.0007 	-8.01961e-06 	-1.32073e-06 30.0004 	-3.25085e-06 	-3.37796e-06 30.0007 	-7.88083e-06 	-1.16801e-06 30.0007 	-7.88082e-06 	-1.16801e-06 30.0007 	-7.88082e-06 	-1.16801e-06 30.0007 	-7.88082e-06 	-1.16801e-06 30.0004 	-1.03588e-07 	-3.40289e-06 30.0007 	-7.74491e-06 	-1.00788e-06 30.0007 	-7.74491e-06 	-1.00788e-06 30.0007 	-7.74491e-06 	-1.00788e-06 30.0007 	-7.7449e-06 	-1.00788e-06 30.0004 	-1.05309e-07 	-3.10328e-06 30.0007 	-7.61078e-06 	-8.4187e-07 30.0007 	-7.61078e-06 	-8.4187e-07 30.0007 	-7.61077e-06 	-8.41869e-07 30.0007 	-7.61077e-06 	-8.41869e-07 30.0004 	-2.93169e-06 	-2.48789e-06 30.0007 	-7.475e-06 	-6.70221e-07 30.0007 	-7.475e-06 	-6.7022e-07 30.0007 	-7.475e-06 	-6.7022e-07 30.0007 	-7.475e-06 	-6.7022e-07 30.0004 	-2.82523e-06 	-2.18313e-06 30.0007 	-7.3429e-06 	-4.97067e-07 30.0007 	-7.3429e-06 	-4.97067e-07 30.0007 	-7.34289e-06 	-4.97067e-07 30.0007 	-7.34289e-06 	-4.97066e-07 30.0004 	-1.1041e-07 	-2.17112e-06 30.0007 	-7.21511e-06 	-3.17341e-07 30.0007 	-7.21511e-06 	-3.17341e-07 30.0007 	-7.21511e-06 	-3.17341e-07 30.0007 	-7.21511e-06 	-3.17341e-07 30.0004 	-1.12092e-07 	-1.85338e-06 30.0007 	-7.09837e-06 	-1.38235e-07 30.0007 	-7.09837e-06 	-1.38235e-07 30.0007 	-7.09837e-06 	-1.38235e-07 30.0007 	-7.09837e-06 	-1.38235e-07 30.0004 	-1.13751e-07 	-1.54904e-06 30.0007 	-6.98503e-06 	4.08319e-08 30.0007 	-6.98503e-06 	4.08319e-08 30.0007 	-6.98503e-06 	4.08319e-08 30.0007 	-6.98503e-06 	4.08319e-08 30.0004 	-2.4388e-06 	-9.58516e-07 30.0007 	-6.87143e-06 	2.14644e-07 30.0007 	-6.87143e-06 	2.14644e-07 30.0007 	-6.87143e-06 	2.14644e-07 30.0007 	-6.87143e-06 	2.14644e-07 30.0004 	-2.3472e-06 	-6.82315e-07 30.0007 	-6.75332e-06 	3.90697e-07 30.0007 	-6.75332e-06 	3.90698e-07 30.0007 	-6.75332e-06 	3.90698e-07 30.0007 	-6.75333e-06 	3.90698e-07 30.0004 	-1.18743e-07 	-7.09792e-07 30.0007 	-6.64285e-06 	5.64353e-07 30.0007 	-6.64285e-06 	5.64353e-07 30.0007 	-6.64285e-06 	5.64353e-07 30.0007 	-6.64285e-06 	5.64353e-07 30.0004 	-2.16688e-06 	-1.45456e-07 30.0007 	-6.53586e-06 	7.27378e-07 30.0007 	-6.53586e-06 	7.27378e-07 30.0007 	-6.53586e-06 	7.27378e-07 30.0007 	-6.53586e-06 	7.27378e-07 30.0004 	-2.08122e-06 	1.13821e-07 30.0007 	-6.43056e-06 	8.78815e-07 30.0007 	-6.43056e-06 	8.78815e-07 30.0007 	-6.43056e-06 	8.78816e-07 30.0007 	-6.43056e-06 	8.78816e-07 30.0004 	-1.23675e-07 	7.05584e-08 30.0007 	-6.32304e-06 	1.01777e-06 30.0007 	-6.32304e-06 	1.01777e-06 30.0007 	-6.32304e-06 	1.01777e-06 30.0007 	-6.32304e-06 	1.01777e-06 30.0004 	-1.25276e-07 	3.15792e-07 30.0007 	-6.21666e-06 	1.14061e-06 30.0007 	-6.21666e-06 	1.14061e-06 30.0007 	-6.21666e-06 	1.14061e-06 30.0007 	-6.21667e-06 	1.14061e-06 30.0004 	-1.26858e-07 	5.45511e-07 30.0007 	-6.11538e-06 	1.25631e-06 30.0007 	-6.11538e-06 	1.25631e-06 30.0007 	-6.11539e-06 	1.25631e-06 30.0007 	-6.11539e-06 	1.25631e-06 30.0004 	-1.76441e-06 	1.03207e-06 30.0007 	-6.02264e-06 	1.37126e-06 30.0007 	-6.02265e-06 	1.37126e-06 30.0007 	-6.02265e-06 	1.37126e-06 30.0007 	-6.02265e-06 	1.37126e-06 30.0004 	-1.29952e-07 	9.3693e-07 30.0007 	-5.94297e-06 	1.48849e-06 30.0007 	-5.94298e-06 	1.48849e-06 30.0007 	-5.94298e-06 	1.48849e-06 30.0007 	-5.94298e-06 	1.48849e-06 30.0004 	-1.31448e-07 	1.10455e-06 30.0007 	-5.87173e-06 	1.59287e-06 30.0007 	-5.87173e-06 	1.59288e-06 30.0007 	-5.87174e-06 	1.59288e-06 30.0007 	-5.87174e-06 	1.59288e-06 30.0004 	-1.59149e-06 	1.53876e-06 30.0007 	-5.80209e-06 	1.6793e-06 30.0007 	-5.80209e-06 	1.6793e-06 30.0007 	-5.8021e-06 	1.6793e-06 30.0007 	-5.8021e-06 	1.6793e-06 30.0003 	-1.54427e-06 	1.67821e-06 30.0007 	-5.73403e-06 	1.7501e-06 30.0007 	-5.73403e-06 	1.7501e-06 30.0007 	-5.73404e-06 	1.7501e-06 30.0007 	-5.73404e-06 	1.7501e-06 30.0003 	-1.36113e-07 	1.52472e-06 30.0006 	-5.66886e-06 	1.8098e-06 30.0006 	-5.66887e-06 	1.8098e-06 30.0006 	-5.66887e-06 	1.8098e-06 30.0006 	-5.66888e-06 	1.8098e-06 30.0003 	-1.37648e-07 	1.63226e-06 30.0006 	-5.60875e-06 	1.85993e-06 30.0006 	-5.60875e-06 	1.85993e-06 30.0006 	-5.60876e-06 	1.85994e-06 30.0006 	-5.60876e-06 	1.85994e-06 30.0003 	-1.39094e-07 	1.72399e-06 30.0006 	-5.55441e-06 	1.90043e-06 30.0006 	-5.55441e-06 	1.90043e-06 30.0006 	-5.55442e-06 	1.90043e-06 30.0006 	-5.55442e-06 	1.90043e-06 30.0003 	-1.38887e-06 	2.07103e-06 30.0006 	-5.50553e-06 	1.93108e-06 30.0006 	-5.50553e-06 	1.93108e-06 30.0006 	-5.50554e-06 	1.93109e-06 30.0006 	-5.50554e-06 	1.93109e-06 30.0003 	-1.36182e-06 	2.13096e-06 30.0006 	-5.46177e-06 	1.95182e-06 30.0006 	-5.46177e-06 	1.95182e-06 30.0006 	-5.46178e-06 	1.95182e-06 30.0006 	-5.46178e-06 	1.95182e-06 30.0003 	-1.43056e-07 	1.90826e-06 30.0006 	-5.42293e-06 	1.96277e-06 30.0006 	-5.42294e-06 	1.96277e-06 30.0006 	-5.42294e-06 	1.96277e-06 30.0006 	-5.42295e-06 	1.96277e-06 30.0003 	-1.32339e-06 	2.20766e-06 30.0006 	-5.38893e-06 	1.9643e-06 30.0006 	-5.38893e-06 	1.9643e-06 30.0006 	-5.38893e-06 	1.9643e-06 30.0006 	-5.38894e-06 	1.9643e-06 30.0003 	-1.3116e-06 	2.22554e-06 30.0006 	-5.3597e-06 	1.95689e-06 30.0006 	-5.35971e-06 	1.95689e-06 30.0006 	-5.35971e-06 	1.95689e-06 30.0006 	-5.35971e-06 	1.95689e-06 30.0003 	-1.46856e-07 	1.96617e-06 30.0005 	-5.3352e-06 	1.94109e-06 30.0005 	-5.33521e-06 	1.94109e-06 30.0005 	-5.33521e-06 	1.94109e-06 30.0005 	-5.33521e-06 	1.94109e-06 30.0003 	-1.48086e-07 	1.96057e-06 30.0005 	-5.31515e-06 	1.9179e-06 30.0005 	-5.31515e-06 	1.9179e-06 30.0005 	-5.31516e-06 	1.9179e-06 30.0005 	-5.31516e-06 	1.9179e-06 30.0003 	-1.49279e-07 	1.94424e-06 30.0005 	-5.2995e-06 	1.88796e-06 30.0005 	-5.2995e-06 	1.88796e-06 30.0005 	-5.29951e-06 	1.88796e-06 30.0005 	-5.29951e-06 	1.88797e-06 30.0003 	-1.30897e-06 	2.179e-06 30.0005 	-5.28811e-06 	1.85186e-06 30.0005 	-5.28811e-06 	1.85186e-06 30.0005 	-5.28812e-06 	1.85186e-06 30.0005 	-5.28812e-06 	1.85186e-06 30.0003 	-1.51581e-07 	1.88229e-06 30.0005 	-5.28079e-06 	1.81003e-06 30.0005 	-5.28079e-06 	1.81004e-06 30.0005 	-5.28079e-06 	1.81004e-06 30.0005 	-5.2808e-06 	1.81004e-06 30.0003 	-1.52682e-07 	1.83817e-06 30.0005 	-5.27729e-06 	1.76311e-06 30.0005 	-5.27729e-06 	1.76311e-06 30.0005 	-5.27729e-06 	1.76311e-06 30.0005 	-5.2773e-06 	1.76312e-06 30.0003 	-1.34812e-06 	2.04408e-06 30.0005 	-5.2774e-06 	1.71157e-06 30.0005 	-5.2774e-06 	1.71157e-06 30.0005 	-5.27741e-06 	1.71157e-06 30.0005 	-5.27741e-06 	1.71158e-06 30.0003 	-1.36818e-06 	1.98424e-06 30.0005 	-5.28095e-06 	1.65594e-06 30.0005 	-5.28095e-06 	1.65594e-06 30.0005 	-5.28095e-06 	1.65594e-06 30.0005 	-5.28096e-06 	1.65594e-06 30.0002 	-1.55837e-07 	1.6628e-06 30.0005 	-5.28771e-06 	1.59662e-06 30.0005 	-5.28771e-06 	1.59662e-06 30.0005 	-5.28772e-06 	1.59662e-06 30.0005 	-5.28772e-06 	1.59662e-06 30.0002 	-1.56877e-07 	1.59255e-06 30.0004 	-5.29762e-06 	1.5341e-06 30.0004 	-5.29763e-06 	1.5341e-06 30.0004 	-5.29763e-06 	1.5341e-06 30.0004 	-5.29763e-06 	1.5341e-06 30.0002 	-1.57937e-07 	1.51769e-06 30.0004 	-5.31052e-06 	1.46883e-06 30.0004 	-5.31053e-06 	1.46883e-06 30.0004 	-5.31053e-06 	1.46884e-06 30.0004 	-5.31053e-06 	1.46884e-06 30.0002 	-1.4798e-06 	1.69063e-06 30.0004 	-5.32603e-06 	1.40138e-06 30.0004 	-5.32603e-06 	1.40138e-06 30.0004 	-5.32603e-06 	1.40138e-06 30.0004 	-5.32603e-06 	1.40138e-06 30.0002 	-1.51431e-06 	1.60714e-06 30.0004 	-5.34392e-06 	1.33213e-06 30.0004 	-5.34393e-06 	1.33213e-06 30.0004 	-5.34393e-06 	1.33213e-06 30.0004 	-5.34393e-06 	1.33213e-06 30.0002 	-1.61162e-07 	1.27186e-06 30.0004 	-5.36394e-06 	1.26142e-06 30.0004 	-5.36394e-06 	1.26142e-06 30.0004 	-5.36395e-06 	1.26142e-06 30.0004 	-5.36395e-06 	1.26142e-06 30.0002 	-1.58965e-06 	1.43251e-06 30.0004 	-5.38574e-06 	1.18975e-06 30.0004 	-5.38574e-06 	1.18975e-06 30.0004 	-5.38574e-06 	1.18975e-06 30.0004 	-5.38574e-06 	1.18975e-06 30.0002 	-1.63014e-06 	1.34243e-06 30.0004 	-5.40934e-06 	1.11741e-06 30.0004 	-5.40934e-06 	1.11741e-06 30.0004 	-5.40935e-06 	1.11741e-06 30.0004 	-5.40935e-06 	1.11741e-06 30.0002 	-1.64189e-07 	1.00608e-06 30.0004 	-5.43454e-06 	1.04474e-06 30.0004 	-5.43454e-06 	1.04474e-06 30.0004 	-5.43455e-06 	1.04474e-06 30.0004 	-5.43455e-06 	1.04474e-06 30.0002 	-1.65154e-07 	9.15606e-07 30.0004 	-5.46017e-06 	9.72211e-07 30.0004 	-5.46017e-06 	9.72211e-07 30.0004 	-5.46017e-06 	9.72211e-07 30.0004 	-5.46017e-06 	9.72212e-07 30.0002 	-1.66056e-07 	8.24983e-07 30.0004 	-5.48618e-06 	8.99432e-07 30.0004 	-5.48618e-06 	8.99432e-07 30.0004 	-5.48618e-06 	8.99433e-07 30.0004 	-5.48619e-06 	8.99433e-07 30.0002 	-1.80705e-06 	9.75437e-07 30.0004 	-5.51294e-06 	8.25901e-07 30.0004 	-5.51294e-06 	8.25902e-07 30.0004 	-5.51295e-06 	8.25902e-07 30.0004 	-5.51295e-06 	8.25902e-07 30.0002 	-1.67752e-07 	6.43616e-07 30.0003 	-5.54269e-06 	7.51943e-07 30.0003 	-5.5427e-06 	7.51944e-07 30.0003 	-5.5427e-06 	7.51944e-07 30.0003 	-5.5427e-06 	7.51944e-07 30.0002 	-1.68592e-07 	5.52622e-07 30.0003 	-5.57715e-06 	6.77402e-07 30.0003 	-5.57716e-06 	6.77403e-07 30.0003 	-5.57716e-06 	6.77403e-07 30.0003 	-5.57716e-06 	6.77403e-07 30.0002 	-1.9554e-06 	7.01331e-07 30.0003 	-5.61398e-06 	6.04333e-07 30.0003 	-5.61399e-06 	6.04333e-07 30.0003 	-5.61399e-06 	6.04333e-07 30.0003 	-5.61399e-06 	6.04334e-07 30.0002 	-2.0076e-06 	6.117e-07 30.0003 	-5.65014e-06 	5.34626e-07 30.0003 	-5.65014e-06 	5.34627e-07 30.0003 	-5.65014e-06 	5.34627e-07 30.0003 	-5.65014e-06 	5.34627e-07 30.0002 	-1.71091e-07 	2.80922e-07 30.0003 	-5.68126e-06 	4.67607e-07 30.0003 	-5.68126e-06 	4.67607e-07 30.0003 	-5.68126e-06 	4.67607e-07 30.0003 	-5.68126e-06 	4.67607e-07 30.0002 	-1.71924e-07 	1.97309e-07 30.0003 	-5.70967e-06 	4.03167e-07 30.0003 	-5.70967e-06 	4.03167e-07 30.0003 	-5.70967e-06 	4.03167e-07 30.0003 	-5.70967e-06 	4.03167e-07 30.0002 	-1.72718e-07 	1.16379e-07 30.0003 	-5.73782e-06 	3.39204e-07 30.0003 	-5.73782e-06 	3.39204e-07 30.0003 	-5.73783e-06 	3.39204e-07 30.0003 	-5.73783e-06 	3.39204e-07 30.0002 	-2.20088e-06 	2.74099e-07 30.0003 	-5.76578e-06 	2.75236e-07 30.0003 	-5.76578e-06 	2.75236e-07 30.0003 	-5.76579e-06 	2.75236e-07 30.0003 	-5.76579e-06 	2.75236e-07 30.0002 	-2.24781e-06 	1.96358e-07 30.0003 	-5.79263e-06 	2.10761e-07 30.0003 	-5.79263e-06 	2.10761e-07 30.0003 	-5.79263e-06 	2.10761e-07 30.0003 	-5.79263e-06 	2.10761e-07 30.0002 	-1.74927e-07 	-1.09163e-07 30.0003 	-5.8207e-06 	1.48766e-07 30.0003 	-5.8207e-06 	1.48766e-07 30.0003 	-5.8207e-06 	1.48766e-07 30.0003 	-5.8207e-06 	1.48766e-07 30.0002 	-2.34163e-06 	4.46767e-08 30.0003 	-5.84995e-06 	8.99727e-08 30.0003 	-5.84995e-06 	8.99727e-08 30.0003 	-5.84995e-06 	8.99727e-08 30.0003 	-5.84995e-06 	8.99727e-08 30.0002 	-2.38894e-06 	-2.90982e-08 30.0003 	-5.88038e-06 	3.47992e-08 30.0003 	-5.88038e-06 	3.47992e-08 30.0003 	-5.88038e-06 	3.47993e-08 30.0003 	-5.88038e-06 	3.47993e-08 30.0002 	-1.76973e-07 	-3.30787e-07 30.0003 	-5.91227e-06 	-1.70724e-08 30.0003 	-5.91227e-06 	-1.70724e-08 30.0003 	-5.91227e-06 	-1.70724e-08 30.0003 	-5.91227e-06 	-1.70724e-08 30.0002 	-1.77629e-07 	-4.0182e-07 30.0003 	-5.94538e-06 	-6.90466e-08 30.0003 	-5.94538e-06 	-6.90466e-08 30.0003 	-5.94538e-06 	-6.90466e-08 30.0003 	-5.94538e-06 	-6.90466e-08 30.0002 	-1.78232e-07 	-4.67092e-07 30.0003 	-5.97731e-06 	-1.23308e-07 30.0003 	-5.97731e-06 	-1.23308e-07 30.0003 	-5.97731e-06 	-1.23308e-07 30.0003 	-5.97731e-06 	-1.23308e-07 30.0002 	-2.58049e-06 	-3.01376e-07 30.0003 	-6.00508e-06 	-1.77951e-07 30.0003 	-6.00508e-06 	-1.77951e-07 30.0003 	-6.00507e-06 	-1.77951e-07 30.0003 	-6.00507e-06 	-1.77951e-07 30.0002 	-1.7941e-07 	-5.84901e-07 30.0003 	-6.02923e-06 	-2.29205e-07 30.0003 	-6.02923e-06 	-2.29205e-07 30.0003 	-6.02923e-06 	-2.29205e-07 30.0003 	-6.02923e-06 	-2.29205e-07 30.0002 	-1.8002e-07 	-6.42162e-07 30.0003 	-6.05246e-06 	-2.76167e-07 30.0003 	-6.05246e-06 	-2.76167e-07 30.0003 	-6.05246e-06 	-2.76167e-07 30.0003 	-6.05246e-06 	-2.76167e-07 30.0002 	-2.70854e-06 	-4.7898e-07 30.0003 	-6.07629e-06 	-3.1965e-07 30.0003 	-6.07629e-06 	-3.1965e-07 30.0003 	-6.07629e-06 	-3.19649e-07 30.0003 	-6.07629e-06 	-3.19649e-07 30.0002 	-2.74958e-06 	-5.34024e-07 30.0003 	-6.10064e-06 	-3.61173e-07 30.0003 	-6.10064e-06 	-3.61173e-07 30.0003 	-6.10064e-06 	-3.61173e-07 30.0003 	-6.10064e-06 	-3.61173e-07 30.0002 	-1.81764e-07 	-8.038e-07 30.0003 	-6.12469e-06 	-4.01369e-07 30.0003 	-6.12468e-06 	-4.01369e-07 30.0003 	-6.12468e-06 	-4.01369e-07 30.0003 	-6.12468e-06 	-4.01369e-07 30.0001 	-1.82308e-07 	-8.53118e-07 30.0003 	-6.14806e-06 	-4.40362e-07 30.0003 	-6.14806e-06 	-4.40362e-07 30.0003 	-6.14806e-06 	-4.40362e-07 30.0003 	-6.14806e-06 	-4.40362e-07 30.0001 	-1.8283e-07 	-9.00326e-07 30.0003 	-6.17069e-06 	-4.77985e-07 30.0003 	-6.17069e-06 	-4.77985e-07 30.0003 	-6.17069e-06 	-4.77985e-07 30.0003 	-6.17069e-06 	-4.77985e-07 30.0001 	-2.90906e-06 	-7.31458e-07 30.0003 	-6.19246e-06 	-5.14202e-07 30.0003 	-6.19246e-06 	-5.14202e-07 30.0003 	-6.19245e-06 	-5.14202e-07 30.0003 	-6.19245e-06 	-5.14202e-07 30.0001 	-2.94694e-06 	-7.75584e-07 30.0003 	-6.21347e-06 	-5.48818e-07 30.0003 	-6.21347e-06 	-5.48818e-07 30.0003 	-6.21347e-06 	-5.48818e-07 30.0003 	-6.21347e-06 	-5.48818e-07 30.0001 	-1.84361e-07 	-1.02953e-06 30.0003 	-6.23363e-06 	-5.82027e-07 30.0003 	-6.23363e-06 	-5.82027e-07 30.0003 	-6.23363e-06 	-5.82027e-07 30.0003 	-6.23363e-06 	-5.82027e-07 30.0001 	-3.01996e-06 	-8.57472e-07 30.0003 	-6.25288e-06 	-6.13872e-07 30.0003 	-6.25288e-06 	-6.13872e-07 30.0003 	-6.25287e-06 	-6.13872e-07 30.0003 	-6.25287e-06 	-6.13872e-07 30.0001 	-3.05505e-06 	-8.95481e-07 30.0003 	-6.27137e-06 	-6.444e-07 30.0003 	-6.27137e-06 	-6.444e-07 30.0003 	-6.27137e-06 	-6.44399e-07 30.0003 	-6.27137e-06 	-6.44399e-07 30.0001 	-1.85798e-07 	-1.14085e-06 30.0003 	-6.28923e-06 	-6.73598e-07 30.0003 	-6.28923e-06 	-6.73598e-07 30.0003 	-6.28923e-06 	-6.73598e-07 30.0003 	-6.28923e-06 	-6.73598e-07 30.0001 	-1.86272e-07 	-1.1746e-06 30.0003 	-6.30624e-06 	-7.01416e-07 30.0003 	-6.30624e-06 	-7.01416e-07 30.0003 	-6.30623e-06 	-7.01415e-07 30.0003 	-6.30623e-06 	-7.01415e-07 30.0001 	-1.86716e-07 	-1.20668e-06 30.0003 	-6.3223e-06 	-7.27849e-07 30.0003 	-6.3223e-06 	-7.27849e-07 30.0003 	-6.3223e-06 	-7.27849e-07 30.0003 	-6.3223e-06 	-7.27848e-07 30.0001 	-3.18652e-06 	-1.031e-06 30.0003 	-6.33755e-06 	-7.52962e-07 30.0003 	-6.33755e-06 	-7.52962e-07 30.0003 	-6.33754e-06 	-7.52961e-07 30.0003 	-6.33754e-06 	-7.52961e-07 30.0001 	-1.87573e-07 	-1.26596e-06 30.0003 	-6.35208e-06 	-7.7693e-07 30.0003 	-6.35208e-06 	-7.7693e-07 30.0003 	-6.35207e-06 	-7.7693e-07 30.0003 	-6.35207e-06 	-7.76929e-07 30.0001 	-1.87998e-07 	-1.29332e-06 30.0003 	-6.36587e-06 	-7.99801e-07 30.0003 	-6.36587e-06 	-7.99801e-07 30.0003 	-6.36587e-06 	-7.99801e-07 30.0003 	-6.36587e-06 	-7.998e-07 30.0001 	-3.27591e-06 	-1.11605e-06 30.0003 	-6.37894e-06 	-8.21532e-07 30.0003 	-6.37894e-06 	-8.21532e-07 30.0003 	-6.37893e-06 	-8.21532e-07 30.0003 	-6.37893e-06 	-8.21531e-07 30.0001 	-3.30403e-06 	-1.14153e-06 30.0003 	-6.39132e-06 	-8.41966e-07 30.0003 	-6.39132e-06 	-8.41966e-07 30.0003 	-6.39132e-06 	-8.41966e-07 30.0003 	-6.39132e-06 	-8.41966e-07 30.0001 	-1.89205e-07 	-1.36687e-06 30.0003 	-6.40296e-06 	-8.61363e-07 30.0003 	-6.40295e-06 	-8.61362e-07 30.0003 	-6.40295e-06 	-8.61362e-07 30.0003 	-6.40295e-06 	-8.61362e-07 30.0001 	-1.89593e-07 	-1.38874e-06 30.0003 	-6.41388e-06 	-8.79802e-07 30.0003 	-6.41388e-06 	-8.79802e-07 30.0003 	-6.41388e-06 	-8.79802e-07 30.0003 	-6.41388e-06 	-8.79801e-07 30.0001 	-1.89969e-07 	-1.40939e-06 30.0003 	-6.42412e-06 	-8.97289e-07 30.0003 	-6.42411e-06 	-8.97288e-07 30.0003 	-6.42411e-06 	-8.97288e-07 30.0003 	-6.42411e-06 	-8.97288e-07 30.0001 	-3.40837e-06 	-1.23053e-06 30.0003 	-6.43367e-06 	-9.13877e-07 30.0003 	-6.43367e-06 	-9.13877e-07 30.0003 	-6.43367e-06 	-9.13876e-07 30.0003 	-6.43367e-06 	-9.13876e-07 30.0001 	-3.43251e-06 	-1.24986e-06 30.0003 	-6.44266e-06 	-9.29561e-07 30.0003 	-6.44266e-06 	-9.29561e-07 30.0003 	-6.44266e-06 	-9.29561e-07 30.0003 	-6.44266e-06 	-9.2956e-07 30.0001 	-1.91105e-07 	-1.46456e-06 30.0003 	-6.45101e-06 	-9.44409e-07 30.0003 	-6.45101e-06 	-9.44409e-07 30.0003 	-6.45101e-06 	-9.44408e-07 30.0003 	-6.451e-06 	-9.44408e-07 30.0001 	-3.47864e-06 	-1.28535e-06 30.0003 	-6.45868e-06 	-9.58416e-07 30.0003 	-6.45868e-06 	-9.58416e-07 30.0003 	-6.45868e-06 	-9.58415e-07 30.0003 	-6.45867e-06 	-9.58415e-07 30.0001 	-3.5007e-06 	-1.30161e-06 30.0003 	-6.46577e-06 	-9.71712e-07 30.0003 	-6.46577e-06 	-9.71712e-07 30.0003 	-6.46576e-06 	-9.71711e-07 30.0003 	-6.46576e-06 	-9.717