# vtk DataFile Version 2.0
track0
ASCII
DATASET POLYDATA
POINTS 15810 float
-1.001 -0.05 0.0011
-1.0008 -0.05 0.0011
-1.0006 -0.05 0.0011
-1.0004 -0.05 0.00109999
-1.0002 -0.05 0.00109999
-1 -0.05 0.00109999
-0.9875 -0.0500002 0.00109986
-0.975 -0.0500005 0.00109981
-0.9625 -0.0500009 0.00109977
-0.95 -0.0500012 0.00109973
-0.9375 -0.0500015 0.00109969
-0.925 -0.0500016 0.00109956
-0.9125 -0.0500019 0.00109951
-0.9 -0.0500022 0.00109946
-0.8875 -0.0500025 0.0010994
-0.875 -0.0500028 0.00109935
-0.8625 -0.0500029 0.00109922
-0.85 -0.0500032 0.00109916
-0.8375 -0.0500035 0.0010991
-0.825 -0.0500038 0.00109904
-0.8125 -0.0500041 0.00109898
-0.8 -0.0500043 0.00109885
-0.7875 -0.0500046 0.00109878
-0.775 -0.0500049 0.00109871
-0.7625 -0.0500053 0.00109864
-0.75 -0.0500056 0.00109857
-0.7375 -0.0500056 0.00109843
-0.725 -0.050006 0.00109835
-0.7125 -0.0500063 0.00109828
-0.7 -0.0500066 0.0010982
-0.6875 -0.0500069 0.00109813
-0.675 -0.050007 0.00109798
-0.6625 -0.0500073 0.0010979
-0.65 -0.0500076 0.00109782
-0.6375 -0.0500079 0.00109774
-0.625 -0.0500083 0.00109766
-0.6125 -0.0500084 0.00109751
-0.6 -0.0500088 0.00109743
-0.5875 -0.0500091 0.00109734
-0.575 -0.0500094 0.00109726
-0.5625 -0.0500098 0.00109717
-0.55 -0.0500099 0.00109702
-0.5375 -0.0500103 0.00109693
-0.525 -0.0500106 0.00109684
-0.5125 -0.050011 0.00109675
-0.5 -0.0500113 0.00109666
-0.4875 -0.0500114 0.0010965
-0.475 -0.0500117 0.00109641
-0.4625 -0.0500121 0.00109631
-0.45 -0.0500125 0.00109622
-0.4375 -0.0500128 0.00109612
-0.425 -0.0500129 0.00109596
-0.4125 -0.0500133 0.00109586
-0.4 -0.0500136 0.00109576
-0.3875 -0.050014 0.00109566
-0.375 -0.0500144 0.00109556
-0.3625 -0.0500145 0.00109539
-0.35 -0.0500148 0.00109529
-0.3375 -0.0500152 0.00109519
-0.325 -0.0500156 0.00109508
-0.3125 -0.050016 0.00109498
-0.3 -0.0500162 0.00109482
-0.2875 -0.0500166 0.00109471
-0.275 -0.0500169 0.0010946
-0.2625 -0.0500173 0.0010945
-0.25 -0.0500177 0.00109439
-0.2375 -0.0500179 0.00109422
-0.225 -0.0500183 0.00109411
-0.2125 -0.0500187 0.001094
-0.2 -0.0500191 0.00109389
-0.1875 -0.0500195 0.00109378
-0.175 -0.0500196 0.0010936
-0.1625 -0.05002 0.00109349
-0.15 -0.0500204 0.00109337
-0.1375 -0.0500208 0.00109326
-0.125 -0.0500212 0.00109315
-0.1125 -0.0500215 0.00109297
-0.1 -0.0500219 0.00109285
-0.0875 -0.0500223 0.00109273
-0.075 -0.0500227 0.00109262
-0.0625 -0.0500231 0.0010925
-0.05 -0.0500234 0.00109232
-0.0375 -0.0500238 0.0010922
-0.025 -0.0500242 0.00109208
-0.0125 -0.0500247 0.00109195
3.21701e-12 -0.0500251 0.00109183
0.0125 -0.0500252 0.00109164
0.025 -0.0500256 0.00109152
0.0375 -0.0500261 0.00109139
0.05 -0.0500265 0.00109126
0.0625 -0.050027 0.00109114
0.075 -0.0500271 0.00109094
0.0875 -0.0500276 0.00109082
0.1 -0.050028 0.00109069
0.1125 -0.0500285 0.00109056
0.125 -0.0500289 0.00109043
0.1375 -0.050029 0.00109023
0.15 -0.0500295 0.0010901
0.1625 -0.05003 0.00108997
0.175 -0.0500304 0.00108984
0.1875 -0.0500309 0.00108971
0.2 -0.0500311 0.00108952
0.2125 -0.0500316 0.00108938
0.225 -0.0500321 0.00108925
0.2375 -0.0500326 0.00108912
0.25 -0.050033 0.00108898
0.2625 -0.0500332 0.00108878
0.275 -0.0500337 0.00108864
0.2875 -0.0500341 0.00108851
0.3 -0.0500346 0.00108837
0.3125 -0.0500351 0.00108823
0.325 -0.0500353 0.00108803
0.3375 -0.0500358 0.00108789
0.35 -0.0500363 0.00108775
0.3625 -0.0500368 0.00108761
0.375 -0.0500373 0.00108747
0.3875 -0.0500376 0.00108727
0.4 -0.0500381 0.00108713
0.4125 -0.0500386 0.00108699
0.425 -0.0500391 0.00108685
0.4375 -0.0500396 0.00108671
0.45 -0.0500399 0.0010865
0.4625 -0.0500404 0.00108636
0.475 -0.0500409 0.00108621
0.4875 -0.0500415 0.00108607
0.5 -0.050042 0.00108593
0.5125 -0.0500421 0.00108572
0.525 -0.0500427 0.00108557
0.5375 -0.0500432 0.00108543
0.55 -0.0500438 0.00108528
0.5625 -0.0500443 0.00108514
0.575 -0.0500445 0.00108492
0.5875 -0.050045 0.00108478
0.6 -0.0500456 0.00108463
0.6125 -0.0500461 0.00108448
0.625 -0.0500467 0.00108434
0.6375 -0.0500469 0.00108412
0.65 -0.0500474 0.00108397
0.6625 -0.050048 0.00108383
0.675 -0.0500486 0.00108368
0.6875 -0.0500491 0.00108353
0.7 -0.0500494 0.00108332
0.7125 -0.05005 0.00108317
0.725 -0.0500506 0.00108302
0.7375 -0.0500512 0.00108288
0.75 -0.0500517 0.00108273
0.7625 -0.0500521 0.00108252
0.775 -0.0500526 0.00108237
0.7875 -0.0500532 0.00108222
0.8 -0.0500538 0.00108207
0.8125 -0.0500544 0.00108192
0.825 -0.0500546 0.0010817
0.8375 -0.0500552 0.00108155
0.85 -0.0500558 0.0010814
0.8625 -0.0500564 0.00108125
0.875 -0.050057 0.00108111
0.8875 -0.0500574 0.00108089
0.9 -0.050058 0.00108075
0.9125 -0.0500586 0.0010806
0.925 -0.0500592 0.00108045
0.9375 -0.0500599 0.0010803
0.95 -0.0500602 0.00108009
0.9625 -0.0500608 0.00107994
0.975 -0.0500615 0.00107979
0.9875 -0.0500621 0.00107964
1 -0.0500628 0.0010795
1.0125 -0.050063 0.00107928
1.025 -0.0500637 0.00107913
1.0375 -0.0500643 0.00107899
1.05 -0.050065 0.00107884
1.0625 -0.0500656 0.00107869
1.075 -0.0500659 0.00107848
1.0875 -0.0500665 0.00107833
1.1 -0.0500672 0.00107819
1.1125 -0.0500679 0.00107804
1.125 -0.0500686 0.00107789
1.1375 -0.0500688 0.00107768
1.15 -0.0500695 0.00107754
1.1625 -0.0500702 0.00107739
1.175 -0.0500709 0.00107725
1.1875 -0.0500715 0.0010771
1.2 -0.0500719 0.0010769
1.2125 -0.0500726 0.00107676
1.225 -0.0500733 0.00107661
1.2375 -0.050074 0.00107647
1.25 -0.0500747 0.00107633
1.2625 -0.050075 0.00107612
1.275 -0.0500757 0.00107598
1.2875 -0.0500764 0.00107584
1.3 -0.0500771 0.0010757
1.3125 -0.0500778 0.00107556
1.325 -0.0500781 0.00107536
1.3375 -0.0500789 0.00107522
1.35 -0.0500796 0.00107508
1.3625 -0.0500803 0.00107495
1.375 -0.0500811 0.00107481
1.3875 -0.0500815 0.00107462
1.4 -0.0500822 0.00107448
1.4125 -0.050083 0.00107435
1.425 -0.0500837 0.00107421
1.4375 -0.0500845 0.00107408
1.45 -0.0500849 0.00107389
1.4625 -0.0500856 0.00107376
1.475 -0.0500864 0.00107363
1.4875 -0.0500872 0.00107349
1.5 -0.050088 0.00107336
1.5125 -0.0500883 0.00107317
1.525 -0.0500891 0.00107304
1.5375 -0.0500898 0.00107292
1.55 -0.0500906 0.00107279
1.5625 -0.0500914 0.00107266
1.575 -0.0500918 0.00107248
1.5875 -0.0500926 0.00107235
1.6 -0.0500934 0.00107223
1.6125 -0.0500942 0.0010721
1.625 -0.050095 0.00107198
1.6375 -0.0500953 0.0010718
1.65 -0.0500961 0.00107168
1.6625 -0.0500969 0.00107156
1.675 -0.0500978 0.00107144
1.6875 -0.0500986 0.00107132
1.7 -0.050099 0.00107115
1.7125 -0.0500998 0.00107103
1.725 -0.0501007 0.00107092
1.7375 -0.0501015 0.0010708
1.75 -0.0501024 0.00107068
1.7625 -0.0501028 0.00107052
1.775 -0.0501037 0.00107041
1.7875 -0.0501045 0.0010703
1.8 -0.0501054 0.00107019
1.8125 -0.0501062 0.00107008
1.825 -0.0501066 0.00106992
1.8375 -0.0501075 0.00106981
1.85 -0.0501084 0.00106971
1.8625 -0.0501093 0.0010696
1.875 -0.0501101 0.00106949
1.8875 -0.0501106 0.00106935
1.9 -0.0501115 0.00106925
1.9125 -0.0501124 0.00106914
1.925 -0.0501133 0.00106904
1.9375 -0.0501142 0.00106894
1.95 -0.0501147 0.0010688
1.9625 -0.0501156 0.00106871
1.975 -0.0501165 0.00106861
1.9875 -0.0501174 0.00106851
2 -0.0501183 0.00106842
2.0125 -0.0501187 0.00106828
2.025 -0.0501197 0.00106819
2.0375 -0.0501206 0.0010681
2.05 -0.0501215 0.00106801
2.0625 -0.0501225 0.00106792
2.075 -0.0501229 0.00106779
2.0875 -0.0501239 0.00106771
2.1 -0.0501248 0.00106763
2.1125 -0.0501258 0.00106754
2.125 -0.0501267 0.00106746
2.1375 -0.0501272 0.00106734
2.15 -0.0501281 0.00106726
2.1625 -0.0501291 0.00106719
2.175 -0.0501301 0.00106711
2.1875 -0.050131 0.00106704
2.2 -0.0501315 0.00106693
2.2125 -0.0501325 0.00106686
2.225 -0.0501335 0.00106679
2.2375 -0.0501345 0.00106672
2.25 -0.0501355 0.00106665
2.2625 -0.0501359 0.00106654
2.275 -0.050137 0.00106648
2.2875 -0.050138 0.00106642
2.3 -0.050139 0.00106635
2.3125 -0.05014 0.00106629
2.325 -0.0501405 0.00106619
2.3375 -0.0501415 0.00106614
2.35 -0.0501426 0.00106608
2.3625 -0.0501436 0.00106602
2.375 -0.0501446 0.00106597
2.3875 -0.0501451 0.00106588
2.4 -0.0501462 0.00106583
2.4125 -0.0501473 0.00106578
2.425 -0.0501483 0.00106573
2.4375 -0.0501494 0.00106568
2.45 -0.0501499 0.0010656
2.4625 -0.050151 0.00106555
2.475 -0.0501521 0.00106551
2.4875 -0.0501531 0.00106546
2.5 -0.0501542 0.00106542
2.5125 -0.0501547 0.00106534
2.525 -0.0501558 0.00106531
2.5375 -0.0501569 0.00106527
2.55 -0.050158 0.00106523
2.5625 -0.0501591 0.00106519
2.575 -0.0501597 0.00106512
2.5875 -0.0501608 0.00106509
2.6 -0.0501619 0.00106505
2.6125 -0.050163 0.00106502
2.625 -0.0501641 0.00106499
2.6375 -0.0501647 0.00106493
2.65 -0.0501658 0.0010649
2.6625 -0.050167 0.00106487
2.675 -0.0501681 0.00106485
2.6875 -0.0501693 0.00106482
2.7 -0.0501698 0.00106477
2.7125 -0.050171 0.00106475
2.725 -0.0501721 0.00106473
2.7375 -0.0501733 0.0010647
2.75 -0.0501745 0.00106468
2.7625 -0.050175 0.00106465
2.775 -0.0501762 0.00106463
2.7875 -0.0501774 0.00106461
2.8 -0.0501786 0.00106459
2.8125 -0.0501798 0.00106458
2.825 -0.0501804 0.00106455
2.8375 -0.0501816 0.00106453
2.85 -0.0501828 0.00106452
2.8625 -0.050184 0.00106451
2.875 -0.0501852 0.0010645
2.8875 -0.0501858 0.00106448
2.9 -0.0501871 0.00106447
2.9125 -0.0501883 0.00106447
2.925 -0.0501895 0.00106446
2.9375 -0.0501908 0.00106446
2.95 -0.0501914 0.00106444
2.9625 -0.0501926 0.00106444
2.975 -0.0501939 0.00106444
2.9875 -0.0501952 0.00106444
3 -0.0501964 0.00106444
3.0125 -0.050197 0.00106443
3.025 -0.0501983 0.00106443
3.0375 -0.0501996 0.00106444
3.05 -0.0502009 0.00106444
3.0625 -0.0502022 0.00106445
3.075 -0.0502028 0.00106445
3.0875 -0.0502041 0.00106446
3.1 -0.0502054 0.00106447
3.1125 -0.0502067 0.00106447
3.125 -0.050208 0.00106448
3.1375 -0.0502087 0.00106449
3.15 -0.05021 0.00106451
3.1625 -0.0502113 0.00106452
3.175 -0.0502127 0.00106453
3.1875 -0.050214 0.00106455
3.2 -0.0502146 0.00106457
3.2125 -0.050216 0.00106458
3.225 -0.0502173 0.0010646
3.2375 -0.0502187 0.00106462
3.25 -0.05022 0.00106464
3.2625 -0.0502207 0.00106466
3.275 -0.0502221 0.00106469
3.2875 -0.0502235 0.00106471
3.3 -0.0502248 0.00106474
3.3125 -0.0502262 0.00106476
3.325 -0.0502269 0.00106479
3.3375 -0.0502283 0.00106482
3.35 -0.0502297 0.00106485
[...]
POINT_DATA 15810
 FIELD attributes 2
p 1 15810 float
3.89081 3.89048 3.89016 3.88984 3.88952 3.8892 3.87079 3.8525 3.8342 3.81591 3.79571 3.77474 3.75363 3.73252 3.71141 3.69109 3.67096 3.65096 3.63096 3.61097 3.59172 3.57189 3.55175 3.53162 3.51149 3.49125 3.47014 3.44881 3.42748 3.40616 3.38466 3.36227 3.33965 3.31703 3.29442 3.2716 3.24808 3.22437 3.20066 3.17695 3.15307 3.12854 3.1038 3.07906 3.05433 3.02939 3.0038 2.978 2.9522 2.92639 2.90037 2.87369 2.84682 2.81994 2.79307 2.76598 2.73827 2.71036 2.68245 2.65454 2.62643 2.59771 2.56881 2.5399 2.51099 2.48189 2.45219 2.4223 2.39241 2.36252 2.33244 2.30178 2.27094 2.2401 2.20925 2.17823 2.14664 2.11487 2.0831 2.05133 2.01937 1.98685 1.95415 1.92144 1.88874 1.85584 1.82239 1.78876 1.75513 1.7215 1.68769 1.65333 1.61882 1.5843 1.54978 1.51509 1.47987 1.44448 1.40909 1.37369 1.33812 1.30202 1.26574 1.22946 1.19318 1.15672 1.11974 1.08259 1.04544 1.00829 0.970968 0.933168 0.895202 0.857237 0.819272 0.781138 0.742558 0.703813 0.665068 0.626324 0.587417 0.548094 0.508603 0.469112 0.429621 0.389972 0.349956 0.309791 0.269626 0.229462 0.189154 0.148548 0.107806 0.0670639 0.0263217 -0.0145531 -0.05567 -0.0969096 -0.138149 -0.179389 -0.220743 -0.262294 -0.30397 -0.345645 -0.387321 -0.429107 -0.471056 -0.51311 -0.555164 -0.597218 -0.63936 -0.681599 -0.723925 -0.76625 -0.808576 -0.850978 -0.89339 -0.935865 -0.97834 -1.02081 -1.06335 -1.10584 -1.14839 -1.19094 -1.23349 -1.27611 -1.31858 -1.36109 -1.40361 -1.44612 -1.48867 -1.53099 -1.57332 -1.61565 -1.65798 -1.70032 -1.74238 -1.78444 -1.82649 -1.86855 -1.91061 -1.95234 -1.99408 -2.03582 -2.07756 -2.1193 -2.16068 -2.20204 -2.2434 -2.28476 -2.3261 -2.367 -2.40787 -2.44874 -2.48961 -2.53044 -2.57079 -2.61109 -2.6514 -2.6917 -2.73196 -2.77168 -2.81134 -2.851 -2.89067 -2.93027 -2.96923 -3.00812 -3.04702 -3.08591 -3.12472 -3.16281 -3.20082 -3.23883 -3.27684 -3.31476 -3.35191 -3.38895 -3.426 -3.46305 -3.49999 -3.5361 -3.57215 -3.6082 -3.64425 -3.68019 -3.71532 -3.75034 -3.78536 -3.82038 -3.85527 -3.88929 -3.92317 -3.95706 -3.99094 -4.02468 -4.05744 -4.09003 -4.12263 -4.15523 -4.18766 -4.21903 -4.25026 -4.2815 -4.31273 -4.34382 -4.37372 -4.40345 -4.43318 -4.46291 -4.49244 -4.52065 -4.54868 -4.57671 -4.60473 -4.63255 -4.65911 -4.68549 -4.71187 -4.73825 -4.76444 -4.78952 -4.81446 -4.8394 -4.86434 -4.88911 -4.91283 -4.93636 -4.95989 -4.98343 -5.00674 -5.02895 -5.05095 -5.07296 -5.09496 -5.11673 -5.13736 -5.15779 -5.17821 -5.19863 -5.21881 -5.23786 -5.2567 -5.27555 -5.2944 -5.31301 -5.33046 -5.34767 -5.36488 -5.38209 -5.39904 -5.41479 -5.43031 -5.44584 -5.46136 -5.47664 -5.49072 -5.50455 -5.51839 -5.53223 -5.54581 -5.55822 -5.57045 -5.58269 -5.59493 -5.60694 -5.61787 -5.62861 -5.63934 -5.65008 -5.66055 -5.66993 -5.67911 -5.68828 -5.69745 -5.70639 -5.71414 -5.72165 -5.72916 -5.73667 -5.74394 -5.75003 -5.7559 -5.76177 -5.76765 -5.77329 -5.77777 -5.78204 -5.7863 -5.79056 -5.79459 -5.79746 -5.80012 -5.80278 -5.80544 -5.80787 -5.80918 -5.8103 -5.81142 -5.81255 -5.81344 -5.81328 -5.81298 -5.81268 -5.81238 -5.8119 -5.8104 -5.80872 -5.80703 -5.80534 -5.8034 -5.80047 -5.79738 -5.79428 -5.79118 -5.78787 -5.78362 -5.7792 -5.77479 -5.77038 -5.76573 -5.76022 -5.7546 -5.74898 -5.74336 -5.73756 -5.73094 -5.72416 -5.71738 -5.7106 -5.7036 -5.69581 -5.68788 -5.67996 -5.67204 -5.66394 -5.65506 -5.64604 -5.63702 -5.62801 -5.61882 -5.60889 -5.5989 -5.58891 -5.57892 -5.56879 -5.55803 -5.54717 -5.53631 -5.52545 -5.51441 -5.50277 -5.49104 -5.47932 -5.46759 -5.45573 -5.44327 -5.4307 -5.41813 -5.40556 -5.39282 -5.37955 -5.36623 -5.35291 -5.3396 -5.32616 -5.31227 -5.29832 -5.28438 -5.27043 -5.25634 -5.24183 -5.22724 -5.21265 -5.19807 -5.18335 -5.16821 -5.15296 -5.1377 -5.12245 -5.10707 -5.09136 -5.07563 -5.0599 -5.04417 -5.02834 -5.01228 -4.99614 -4.97999 -4.96384 -4.94751 -4.93099 -4.91438 -4.89777 -4.88116 -4.86443 -4.84751 -4.8305 -4.8135 -4.79649 -4.77941 -4.76216 -4.74488 -4.7276 -4.71032 -4.69298 -4.67552 -4.65803 -4.64053 -4.62304 -4.60548 -4.58779 -4.57008 -4.55237 -4.53466 -4.51691 -4.49902 -4.48112 -4.46323 -4.44534 -4.42744 -4.40941 -4.39141 -4.3734 -4.35539 -4.33738 -4.3193 -4.30124 -4.28318 -4.26513 -4.24702 -4.22886 -4.21074 -4.19262 -4.17451 -4.15636 -4.1382 -4.12006 -4.10192 -4.08377 -4.06558 -4.04738 -4.02927 -4.01115 -3.99304 -3.97492 -3.95686 -3.93886 -3.92087 -3.90287 -3.88488 -3.867 -3.84917 -3.83134 -3.81351 -3.7957 -3.77799 -3.76031 -3.74264 -3.72497 -3.70737 -3.68998 -3.67259 -3.6552 -3.63781 -3.62047 -3.60336 -3.5863 -3.56924 -3.55218 -3.53515 -3.51834 -3.50159 -3.48483 -3.46808 -3.45136 -3.43487 -3.41844 -3.40201 -3.38557 -3.36915 -3.35292 -3.33676 -3.3206 -3.30444 -3.2883 -3.27232 -3.25638 -3.24044 -3.2245 -3.20858 -3.19281 -3.17708 -3.16135 -3.14563 -3.12994 -3.11437 -3.09886 -3.08336 -3.06786 -3.05244 -3.03714 -3.02192 -3.0067 -2.99147 -2.97632 -2.9613 -2.94637 -2.93143 -2.9165 -2.90157 -2.88677 -2.87203 -2.85729 -2.84255 -2.82783 -2.81326 -2.79873 -2.78421 -2.76968 -2.75518 -2.74089 -2.72666 -2.71244 -2.69821 -2.68405 -2.67013 -2.65632 -2.6425 -2.62869 -2.61505 -2.60164 -2.58815 -2.57466 -2.56117 -2.54767 -2.53436 -2.52102 -2.50769 -2.49436 -2.48103 -2.46793 -2.45489 -2.44184 -2.42879 -2.41574 -2.40301 -2.39035 -2.3777 -2.36504 -2.35236 -2.34007 -2.32782 -2.31558 -2.30333 -2.29115 -2.27929 -2.2675 -2.2557 -2.24391 -2.23222 -2.22074 -2.20932 -2.19789 -2.18647 -2.17506 -2.16382 -2.15266 -2.14151 -2.13036 -2.11924 -2.10831 -2.09744 -2.08658 -2.07571 -2.06493 -2.05424 -2.04364 -2.03305 -2.02245 -2.01198 -2.0016 -1.99127 -1.98095 -1.97062 -1.96038 -1.95025 -1.94019 -1.93014 -1.92009 -1.9101 -1.90015 -1.89026 -1.88037 -1.87049 -1.86063 -1.85083 -1.8411 -1.83136 -1.82163 -1.81193 -1.80235 -1.79288 -1.7834 -1.77393 -1.76454 -1.75526 -1.74609 -1.73693 -1.72776 -1.71873 -1.7098 -1.70085 -1.6919 -1.68295 -1.67403 -1.66519 -1.65636 -1.64753 -1.63871 -1.62996 -1.62135 -1.61276 -1.60418 -1.59559 -1.58704 -1.57867 -1.57034 -1.56202 -1.55369 -1.54541 -1.53729 -1.52918 -1.52106 -1.51295 -1.50488 -1.49699 -1.48915 -1.4813 -1.47346 -1.46574 -1.45816 -1.4506 -1.44305 -1.43549 -1.42798 -1.42057 -1.41324 -1.40591 -1.39857 -1.39131 -1.38413 -1.37697 -1.36981 -1.36265 -1.35557 -1.34848 -1.34147 -1.33445 -1.32744 -1.32058 -1.3137 -1.30686 -1.30002 -1.29317 -1.28642 -1.27973 -1.27314 -1.26655 -1.25996 -1.25347 -1.24716 -1.2409 -1.23465 -1.22839 -1.2222 -1.21669 -1.2114 -1.2061 -1.2008 -1.19567 -1.19003 -1.18445 -1.17887 -1.17329 -1.16694 -1.152 -1.13623 -1.1202 -1.10544 -1.09102 -1.07936 -1.06761 -1.05588 -1.04507 -1.03429 -1.01208 -0.990295 -0.968515 -0.944865 -0.922217 -0.901656 -0.881992 -0.862347 -0.842702 -0.823119 -0.804409 -0.785787 -0.767164 -0.74856 -0.730984 -0.697475 -0.664496 -0.631517 -0.598537 -0.564328 -0.538264 -0.512551 -0.486838 -0.461125 -0.435352 -0.399283 -0.364007 -0.328732 -0.293456 -0.259584 -0.236963 -0.214969 -0.192976 -0.170982 -0.14855 -0.132921 -0.117839 -0.102757 -0.0876751 -0.0720709 -0.0623965 -0.0532044 -0.0440123 -0.0348202 -0.0250504 -0.0205117 -0.016389 -0.0122686 -0.00815076 -0.00331402
3.87722 3.87685 3.87648 3.87611 3.87575 3.87538 3.86025 3.84287 3.82752 3.8126 3.79312 3.77172 3.75193 3.73194 3.71102 3.69218 3.67206 3.65206 3.63242 3.61286 3.59406 3.57394 3.55377 3.53361 3.51343 3.49334 3.47208 3.45071 3.42931 3.4079 3.38643 3.36377 3.34111 3.31846 3.29582 3.27324 3.24939 3.22566 3.20193 3.1782 3.15459 3.12973 3.10497 3.08022 3.05547 3.03086 3.00494 2.97913 2.95331 2.92748 2.90175 2.87474 2.84782 2.82091 2.79402 2.76723 2.73912 2.7112 2.68325 2.65529 2.62752 2.5984 2.56945 2.54051 2.5116 2.48285 2.45276 2.42286 2.39295 2.36303 2.33333 2.30226 2.27139 2.24053 2.20969 2.17904 2.14704 2.11526 2.08347 2.05166 2.02008 1.98715 1.9544 1.92167 1.88895 1.85642 1.82255 1.78891 1.75526 1.7216 1.68817 1.65341 1.61886 1.58431 1.54979 1.51548 1.47985 1.44445 1.40901 1.37357 1.33835 1.30186 1.26552 1.2292 1.19291 1.15677 1.11942 1.08226 1.04506 1.00785 0.970841 0.932657 0.894629 0.856612 0.818636 0.780812 0.741871 0.703116 0.664315 0.625501 0.586881 0.547199 0.507628 0.468072 0.428571 0.389188 0.34882 0.308644 0.268416 0.228172 0.188138 0.147162 0.106345 0.0655417 0.0247892 -0.0158078 -0.057271 -0.0985201 -0.139824 -0.181143 -0.222236 -0.264128 -0.305889 -0.347632 -0.389316 -0.430857 -0.47311 -0.515172 -0.557291 -0.599429 -0.641356 -0.683922 -0.726331 -0.768723 -0.811058 -0.853227 -0.895955 -0.93844 -0.980988 -1.02356 -1.06588 -1.10866 -1.15131 -1.19394 -1.2365 -1.27892 -1.32171 -1.36423 -1.4068 -1.44939 -1.49171 -1.53431 -1.57671 -1.61908 -1.66141 -1.70355 -1.74587 -1.78793 -1.83005 -1.87219 -1.91407 -1.95602 -1.99785 -2.03966 -2.08141 -2.12301 -2.16456 -2.20593 -2.24736 -2.28881 -2.33006 -2.37116 -2.41211 -2.45304 -2.49391 -2.53465 -2.57512 -2.61543 -2.6558 -2.69618 -2.73639 -2.77624 -2.81599 -2.85572 -2.89539 -2.93494 -2.97403 -3.01293 -3.05187 -3.09083 -3.1296 -3.1678 -3.20587 -3.24392 -3.28193 -3.31981 -3.35702 -3.39407 -3.43116 -3.46827 -3.5052 -3.54136 -3.57747 -3.61356 -3.6496 -3.68557 -3.72065 -3.75566 -3.79071 -3.82577 -3.86072 -3.89473 -3.92863 -3.96254 -3.99642 -4.0302 -4.06298 -4.09559 -4.12821 -4.16083 -4.19328 -4.22468 -4.25595 -4.28722 -4.31847 -4.34956 -4.37965 -4.40939 -4.43913 -4.46888 -4.49826 -4.52668 -4.55472 -4.58276 -4.61077 -4.6384 -4.66494 -4.69129 -4.71769 -4.74412 -4.77035 -4.79526 -4.82023 -4.84519 -4.8701 -4.89506 -4.9185 -4.94201 -4.96555 -4.9891 -5.01268 -5.03465 -5.05665 -5.07864 -5.10063 -5.12265 -5.14297 -5.16338 -5.18379 -5.2042 -5.22468 -5.24341 -5.26226 -5.2811 -5.29994 -5.31885 -5.33598 -5.35318 -5.37038 -5.38757 -5.40482 -5.42025 -5.43574 -5.45124 -5.46676 -5.48233 -5.49605 -5.50988 -5.5237 -5.53751 -5.5514 -5.56344 -5.57565 -5.58787 -5.60009 -5.61245 -5.62292 -5.63365 -5.64434 -5.65503 -5.66589 -5.6749 -5.684 -5.69312 -5.70229 -5.71154 -5.71897 -5.72649 -5.73395 -5.7414 -5.74893 -5.75473 -5.76054 -5.76637 -5.77224 -5.77811 -5.78232 -5.78658 -5.79079 -5.79498 -5.79921 -5.80181 -5.80441 -5.80702 -5.80967 -5.81231 -5.81335 -5.81446 -5.81555 -5.81662 -5.81776 -5.8173 -5.81694 -5.81659 -5.81628 -5.81601 -5.81422 -5.81251 -5.81077 -5.809 -5.80728 -5.8041 -5.80092 -5.79777 -5.79466 -5.79153 -5.787 -5.78258 -5.77813 -5.77366 -5.76925 -5.7635 -5.75783 -5.75217 -5.74655 -5.74093 -5.73404 -5.72725 -5.72041 -5.71356 -5.70676 -5.69875 -5.69074 -5.68276 -5.67483 -5.66688 -5.65779 -5.64877 -5.63969 -5.63059 -5.62154 -5.61142 -5.60137 -5.59134 -5.58134 -5.57135 -5.56036 -5.54949 -5.53858 -5.52765 -5.51677 -5.50495 -5.49313 -5.48133 -5.46959 -5.45783 -5.44518 -5.4326 -5.41997 -5.40731 -5.39471 -5.38127 -5.3679 -5.35454 -5.34122 -5.32789 -5.31384 -5.29988 -5.28589 -5.2719 -5.25794 -5.24329 -5.22863 -5.21399 -5.19939 -5.18474 -5.16949 -5.15423 -5.13894 -5.12362 -5.1083 -5.09248 -5.0767 -5.06093 -5.04519 -5.02943 -5.01322 -4.99706 -4.98087 -4.96466 -4.94842 -4.93179 -4.91511 -4.89846 -4.88184 -4.86519 -4.84815 -4.83115 -4.8141 -4.79704 -4.78 -4.76266 -4.74534 -4.72803 -4.71075 -4.69349 -4.67591 -4.65841 -4.64089 -4.62335 -4.60583 -4.58807 -4.5703 -4.55255 -4.53484 -4.51714 -4.49919 -4.4813 -4.46338 -4.44544 -4.42756 -4.40949 -4.39145 -4.37343 -4.35542 -4.33743 -4.31929 -4.30122 -4.28314 -4.26505 -4.24697 -4.22878 -4.21059 -4.19242 -4.1743 -4.15614 -4.13793 -4.11978 -4.10161 -4.08342 -4.06528 -4.0471 -4.02899 -4.01088 -3.99276 -3.97464 -3.95656 -3.93856 -3.92055 -3.90253 -3.88456 -3.86663 -3.84873 -3.83085 -3.81302 -3.79517 -3.77747 -3.75981 -3.74212 -3.72441 -3.70682 -3.68936 -3.67198 -3.65461 -3.63723 -3.6199 -3.60281 -3.58576 -3.5687 -3.55163 -3.5346 -3.51779 -3.50102 -3.48426 -3.4675 -3.45077 -3.4343 -3.41787 -3.40144 -3.385 -3.36859 -3.35242 -3.33627 -3.32013 -3.30397 -3.2878 -3.27186 -3.25593 -3.24 -3.22406 -3.2081 -3.19237 -3.17662 -3.16088 -3.14516 -3.12943 -3.11393 -3.09843 -3.08293 -3.06741 -3.05193 -3.0367 -3.02149 -3.00628 -2.99106 -2.97585 -2.96091 -2.94596 -2.93103 -2.91611 -2.90113 -2.8864 -2.87164 -2.85687 -2.84213 -2.82733 -2.8128 -2.79828 -2.78375 -2.76922 -2.7547 -2.7405 -2.72633 -2.71215 -2.69793 -2.68373 -2.6699 -2.6561 -2.64231 -2.62852 -2.6148 -2.60149 -2.58796 -2.57444 -2.56095 -2.54728 -2.53415 -2.52082 -2.50747 -2.4941 -2.48061 -2.46767 -2.45464 -2.44161 -2.42856 -2.41534 -2.40268 -2.39002 -2.37738 -2.36474 -2.35209 -2.3398 -2.32757 -2.31533 -2.30309 -2.29087 -2.27905 -2.26727 -2.25549 -2.2437 -2.23199 -2.22063 -2.20925 -2.19786 -2.18644 -2.17496 -2.16379 -2.15265 -2.14153 -2.13041 -2.1193 -2.10841 -2.09755 -2.08669 -2.07584 -2.06501 -2.05442 -2.04383 -2.03323 -2.02263 -2.01208 -2.00174 -1.99143 -1.98112 -1.9708 -1.96051 -1.95045 -1.9404 -1.93034 -1.92029 -1.91021 -1.90032 -1.8904 -1.88048 -1.87058 -1.86064 -1.85091 -1.84118 -1.83145 -1.82172 -1.81201 -1.80254 -1.79314 -1.78372 -1.77426 -1.76483 -1.75565 -1.74648 -1.73731 -1.72813 -1.71899 -1.71001 -1.70098 -1.69196 -1.683 -1.67401 -1.66523 -1.65641 -1.64758 -1.63874 -1.62992 -1.62136 -1.61282 -1.60427 -1.59569 -1.58711 -1.57881 -1.57049 -1.56221 -1.55393 -1.54566 -1.53756 -1.52946 -1.52137 -1.51326 -1.50517 -1.49733 -1.4895 -1.48166 -1.47383 -1.46604 -1.4585 -1.451 -1.44348 -1.43593 -1.4284 -1.42107 -1.41375 -1.40645 -1.39915 -1.39187 -1.3847 -1.37752 -1.37034 -1.36319 -1.35605 -1.34907 -1.34206 -1.33504 -1.328 -1.32101 -1.31417 -1.30735 -1.30052 -1.29367 -1.28684 -1.28021 -1.27359 -1.26691 -1.26021 -1.25353 -1.24699 -1.24035 -1.23378 -1.22743 -1.221 -1.2152 -1.20956 -1.2032 -1.19659 -1.19018 -1.18487 -1.17952 -1.1741 -1.16848 -1.16245 -1.14363 -1.12778 -1.1127 -1.09919 -1.08977 -1.07906 -1.06777 -1.05688 -1.04679 -1.03726 -1.01556 -0.996439 -0.977314 -0.95597 -0.935429 -0.93311 -0.930791 -0.928471 -0.92621 -0.924054 -0.903191 -0.883106 -0.863184 -0.843262 -0.824286 -0.804556 -0.78563 -0.766923 -0.748581 -0.731981 -0.693379 -0.659985 -0.626808 -0.593831 -0.564111 -0.533475 -0.507762 -0.481964 -0.455904 -0.434851 -0.391323 -0.356042 -0.320761 -0.285419 -0.258543 -0.228009 -0.206011 -0.184012 -0.162039 -0.14751 -0.123843 -0.108755 -0.0936679 -0.0785804 -0.0715664 -0.0543472 -0.0451487 -0.0359503 -0.0267519 -0.0253061 -0.0141372 -0.0100041 -0.00586881 -0.00173146 -0.00290218