# vtk DataFile Version 2.0
track0
ASCII
DATASET POLYDATA
POINTS 15810 float
-1.001 -0.05 0.0011
-1.0008 -0.05 0.0011
-1.0006 -0.05 0.0011
-1.0004 -0.05 0.00109999
-1.0002 -0.05 0.00109999
-1 -0.05 0.00109999
-0.9875 -0.0500002 0.00109986
-0.975 -0.0500005 0.00109981
-0.9625 -0.0500009 0.00109977
-0.95 -0.0500012 0.00109973
-0.9375 -0.0500015 0.00109969
-0.925 -0.0500016 0.00109956
-0.9125 -0.0500019 0.00109951
-0.9 -0.0500022 0.00109946
-0.8875 -0.0500025 0.0010994
-0.875 -0.0500028 0.00109935
-0.8625 -0.0500029 0.00109922
-0.85 -0.0500032 0.00109916
-0.8375 -0.0500035 0.0010991
-0.825 -0.0500038 0.00109904
-0.8125 -0.0500041 0.00109898
-0.8 -0.0500043 0.00109885
-0.7875 -0.0500046 0.00109878
-0.775 -0.0500049 0.00109871
-0.7625 -0.0500053 0.00109864
-0.75 -0.0500056 0.00109857
-0.7375 -0.0500056 0.00109843
-0.725 -0.050006 0.00109835
-0.7125 -0.0500063 0.00109828
-0.7 -0.0500066 0.0010982
-0.6875 -0.0500069 0.00109813
-0.675 -0.050007 0.00109798
-0.6625 -0.0500073 0.0010979
-0.65 -0.0500076 0.00109782
-0.6375 -0.0500079 0.00109774
-0.625 -0.0500083 0.00109766
-0.6125 -0.0500084 0.00109751
-0.6 -0.0500088 0.00109743
-0.5875 -0.0500091 0.00109734
-0.575 -0.0500094 0.00109726
-0.5625 -0.0500098 0.00109717
-0.55 -0.0500099 0.00109702
-0.5375 -0.0500103 0.00109693
-0.525 -0.0500106 0.00109684
-0.5125 -0.050011 0.00109675
-0.5 -0.0500113 0.00109666
-0.4875 -0.0500114 0.0010965
-0.475 -0.0500117 0.00109641
-0.4625 -0.0500121 0.00109631
-0.45 -0.0500125 0.00109622
-0.4375 -0.0500128 0.00109612
-0.425 -0.0500129 0.00109596
-0.4125 -0.0500133 0.00109586
-0.4 -0.0500136 0.00109576
-0.3875 -0.050014 0.00109566
-0.375 -0.0500144 0.00109556
-0.3625 -0.0500145 0.00109539
-0.35 -0.0500148 0.00109529
-0.3375 -0.0500152 0.00109519
-0.325 -0.0500156 0.00109508
-0.3125 -0.050016 0.00109498
-0.3 -0.0500162 0.00109482
-0.2875 -0.0500166 0.00109471
-0.275 -0.0500169 0.0010946
-0.2625 -0.0500173 0.0010945
-0.25 -0.0500177 0.00109439
-0.2375 -0.0500179 0.00109422
-0.225 -0.0500183 0.00109411
-0.2125 -0.0500187 0.001094
-0.2 -0.0500191 0.00109389
-0.1875 -0.0500195 0.00109378
-0.175 -0.0500196 0.0010936
-0.1625 -0.05002 0.00109349
-0.15 -0.0500204 0.00109337
-0.1375 -0.0500208 0.00109326
-0.125 -0.0500212 0.00109315
-0.1125 -0.0500215 0.00109297
-0.1 -0.0500219 0.00109285
-0.0875 -0.0500223 0.00109273
-0.075 -0.0500227 0.00109262
-0.0625 -0.0500231 0.0010925
-0.05 -0.0500234 0.00109232
-0.0375 -0.0500238 0.0010922
-0.025 -0.0500242 0.00109208
-0.0125 -0.0500247 0.00109195
3.21701e-12 -0.0500251 0.00109183
0.0125 -0.0500252 0.00109164
0.025 -0.0500256 0.00109152
0.0375 -0.0500261 0.00109139
0.05 -0.0500265 0.00109126
0.0625 -0.050027 0.00109114
0.075 -0.0500271 0.00109094
0.0875 -0.0500276 0.00109082
0.1 -0.050028 0.00109069
0.1125 -0.0500285 0.00109056
0.125 -0.0500289 0.00109043
0.1375 -0.050029 0.00109023
0.15 -0.0500295 0.0010901
0.1625 -0.05003 0.00108997
0.175 -0.0500304 0.00108984
0.1875 -0.0500309 0.00108971
0.2 -0.0500311 0.00108952
0.2125 -0.0500316 0.00108938
0.225 -0.0500321 0.00108925
0.2375 -0.0500326 0.00108912
0.25 -0.050033 0.00108898
0.2625 -0.0500332 0.00108878
0.275 -0.0500337 0.00108864
0.2875 -0.0500341 0.00108851
0.3 -0.0500346 0.00108837
0.3125 -0.0500351 0.00108823
0.325 -0.0500353 0.00108803
0.3375 -0.0500358 0.00108789
0.35 -0.0500363 0.00108775
0.3625 -0.0500368 0.00108761
0.375 -0.0500373 0.00108747
0.3875 -0.0500376 0.00108727
0.4 -0.0500381 0.00108713
0.4125 -0.0500386 0.00108699
0.425 -0.0500391 0.00108685
0.4375 -0.0500396 0.00108671
0.45 -0.0500399 0.0010865
0.4625 -0.0500404 0.00108636
0.475 -0.0500409 0.00108621
0.4875 -0.0500415 0.00108607
0.5 -0.050042 0.00108593
0.5125 -0.0500421 0.00108572
0.525 -0.0500427 0.00108557
0.5375 -0.0500432 0.00108543
0.55 -0.0500438 0.00108528
0.5625 -0.0500443 0.00108514
0.575 -0.0500445 0.00108492
0.5875 -0.050045 0.00108478
0.6 -0.0500456 0.00108463
0.6125 -0.0500461 0.00108448
0.625 -0.0500467 0.00108434
0.6375 -0.0500469 0.00108412
0.65 -0.0500474 0.00108397
0.6625 -0.050048 0.00108383
0.675 -0.0500486 0.00108368
0.6875 -0.0500491 0.00108353
0.7 -0.0500494 0.00108332
0.7125 -0.05005 0.00108317
0.725 -0.0500506 0.00108302
0.7375 -0.0500512 0.00108288
0.75 -0.0500517 0.00108273
0.7625 -0.0500521 0.00108252
0.775 -0.0500526 0.00108237
0.7875 -0.0500532 0.00108222
0.8 -0.0500538 0.00108207
0.8125 -0.0500544 0.00108192
0.825 -0.0500546 0.0010817
0.8375 -0.0500552 0.00108155
0.85 -0.0500558 0.0010814
0.8625 -0.0500564 0.00108125
0.875 -0.050057 0.00108111
0.8875 -0.0500574 0.00108089
0.9 -0.050058 0.00108075
0.9125 -0.0500586 0.0010806
0.925 -0.0500592 0.00108045
0.9375 -0.0500599 0.0010803
0.95 -0.0500602 0.00108009
0.9625 -0.0500608 0.00107994
0.975 -0.0500615 0.00107979
0.9875 -0.0500621 0.00107964
1 -0.0500628 0.0010795
1.0125 -0.050063 0.00107928
1.025 -0.0500637 0.00107913
1.0375 -0.0500643 0.00107899
1.05 -0.050065 0.00107884
1.0625 -0.0500656 0.00107869
1.075 -0.0500659 0.00107848
1.0875 -0.0500665 0.00107833
1.1 -0.0500672 0.00107819
1.1125 -0.0500679 0.00107804
1.125 -0.0500686 0.00107789
1.1375 -0.0500688 0.00107768
1.15 -0.0500695 0.00107754
1.1625 -0.0500702 0.00107739
1.175 -0.0500709 0.00107725
1.1875 -0.0500715 0.0010771
1.2 -0.0500719 0.0010769
1.2125 -0.0500726 0.00107676
1.225 -0.0500733 0.00107661
1.2375 -0.050074 0.00107647
1.25 -0.0500747 0.00107633
1.2625 -0.050075 0.00107612
1.275 -0.0500757 0.00107598
1.2875 -0.0500764 0.00107584
1.3 -0.0500771 0.0010757
1.3125 -0.0500778 0.00107556
1.325 -0.0500781 0.00107536
1.3375 -0.0500789 0.00107522
1.35 -0.0500796 0.00107508
1.3625 -0.0500803 0.00107495
1.375 -0.0500811 0.00107481
1.3875 -0.0500815 0.00107462
1.4 -0.0500822 0.00107448
1.4125 -0.050083 0.00107435
1.425 -0.0500837 0.00107421
1.4375 -0.0500845 0.00107408
1.45 -0.0500849 0.00107389
1.4625 -0.0500856 0.00107376
1.475 -0.0500864 0.00107363
1.4875 -0.0500872 0.00107349
1.5 -0.050088 0.00107336
1.5125 -0.0500883 0.00107317
1.525 -0.0500891 0.00107304
1.5375 -0.0500898 0.00107292
1.55 -0.0500906 0.00107279
1.5625 -0.0500914 0.00107266
1.575 -0.0500918 0.00107248
1.5875 -0.0500926 0.00107235
1.6 -0.0500934 0.00107223
1.6125 -0.0500942 0.0010721
1.625 -0.050095 0.00107198
1.6375 -0.0500953 0.0010718
1.65 -0.0500961 0.00107168
1.6625 -0.0500969 0.00107156
1.675 -0.0500978 0.00107144
1.6875 -0.0500986 0.00107132
1.7 -0.050099 0.00107115
1.7125 -0.0500998 0.00107103
1.725 -0.0501007 0.00107092
1.7375 -0.0501015 0.0010708
1.75 -0.0501024 0.00107068
1.7625 -0.0501028 0.00107052
1.775 -0.0501037 0.00107041
1.7875 -0.0501045 0.0010703
1.8 -0.0501054 0.00107019
1.8125 -0.0501062 0.00107008
1.825 -0.0501066 0.00106992
1.8375 -0.0501075 0.00106981
1.85 -0.0501084 0.00106971
1.8625 -0.0501093 0.0010696
1.875 -0.0501101 0.00106949
1.8875 -0.0501106 0.00106935
1.9 -0.0501115 0.00106925
1.9125 -0.0501124 0.00106914
1.925 -0.0501133 0.00106904
1.9375 -0.0501142 0.00106894
1.95 -0.0501147 0.0010688
1.9625 -0.0501156 0.00106871
1.975 -0.0501165 0.00106861
1.9875 -0.0501174 0.00106851
2 -0.0501183 0.00106842
2.0125 -0.0501187 0.00106828
2.025 -0.0501197 0.00106819
2.0375 -0.0501206 0.0010681
2.05 -0.0501215 0.00106801
2.0625 -0.0501225 0.00106792
2.075 -0.0501229 0.00106779
2.0875 -0.0501239 0.00106771
2.1 -0.0501248 0.00106763
2.1125 -0.0501258 0.00106754
2.125 -0.0501267 0.00106746
2.1375 -0.0501272 0.00106734
2.15 -0.0501281 0.00106726
2.1625 -0.0501291 0.00106719
2.175 -0.0501301 0.00106711
2.1875 -0.050131 0.00106704
2.2 -0.0501315 0.00106693
2.2125 -0.0501325 0.00106686
2.225 -0.0501335 0.00106679
2.2375 -0.0501345 0.00106672
2.25 -0.0501355 0.00106665
2.2625 -0.0501359 0.00106654
2.275 -0.050137 0.00106648
2.2875 -0.050138 0.00106642
2.3 -0.050139 0.00106635
2.3125 -0.05014 0.00106629
2.325 -0.0501405 0.00106619
2.3375 -0.0501415 0.00106614
2.35 -0.0501426 0.00106608
2.3625 -0.0501436 0.00106602
2.375 -0.0501446 0.00106597
2.3875 -0.0501451 0.00106588
2.4 -0.0501462 0.00106583
2.4125 -0.0501473 0.00106578
2.425 -0.0501483 0.00106573
2.4375 -0.0501494 0.00106568
2.45 -0.0501499 0.0010656
2.4625 -0.050151 0.00106555
2.475 -0.0501521 0.00106551
2.4875 -0.0501531 0.00106546
2.5 -0.0501542 0.00106542
2.5125 -0.0501547 0.00106534
2.525 -0.0501558 0.00106531
2.5375 -0.0501569 0.00106527
2.55 -0.050158 0.00106523
2.5625 -0.0501591 0.00106519
2.575 -0.0501597 0.00106512
2.5875 -0.0501608 0.00106509
2.6 -0.0501619 0.00106505
2.6125 -0.050163 0.00106502
2.625 -0.0501641 0.00106499
2.6375 -0.0501647 0.00106493
2.65 -0.0501658 0.0010649
2.6625 -0.050167 0.00106487
2.675 -0.0501681 0.00106485
2.6875 -0.0501693 0.00106482
2.7 -0.0501698 0.00106477
2.7125 -0.050171 0.00106475
2.725 -0.0501721 0.00106473
2.7375 -0.0501733 0.0010647
2.75 -0.0501745 0.00106468
2.7625 -0.050175 0.00106465
2.775 -0.0501762 0.00106463
2.7875 -0.0501774 0.00106461
2.8 -0.0501786 0.00106459
2.8125 -0.0501798 0.00106458
2.825 -0.0501804 0.00106455
2.8375 -0.0501816 0.00106453
2.85 -0.0501828 0.00106452
2.8625 -0.050184 0.00106451
2.875 -0.0501852 0.0010645
2.8875 -0.0501858 0.00106448
2.9 -0.0501871 0.00106447
2.9125 -0.0501883 0.00106447
2.925 -0.0501895 0.00106446
2.9375 -0.0501908 0.00106446
2.95 -0.0501914 0.00106444
2.9625 -0.0501926 0.00106444
2.975 -0.0501939 0.00106444
2.9875 -0.0501952 0.00106444
3 -0.0501964 0.00106444
3.0125 -0.050197 0.00106443
3.025 -0.0501983 0.00106443
3.0375 -0.0501996 0.00106444
3.05 -0.0502009 0.00106444
3.0625 -0.0502022 0.00106445
3.075 -0.0502028 0.00106445
3.0875 -0.0502041 0.00106446
3.1 -0.0502054 0.00106447
3.1125 -0.0502067 0.00106447
3.125 -0.050208 0.00106448
3.1375 -0.0502087 0.00106449
3.15 -0.05021 0.00106451
3.1625 -0.0502113 0.00106452
3.175 -0.0502127 0.00106453
3.1875 -0.050214 0.00106455
3.2 -0.0502146 0.00106457
3.2125 -0.050216 0.00106458
3.225 -0.0502173 0.0010646
3.2375 -0.0502187 0.00106462
3.25 -0.05022 0.00106464
3.2625 -0.0502207 0.00106466
3.275 -0.0502221 0.00106469
3.2875 -0.0502235 0.00106471
3.3 -0.0502248 0.00106474
3.3125 -0.0502262 0.00106476
3.325 -0.0502269 0.00106479
3.3375 -0.0502283 0.00106482
3.35 -0.0502297 0.00106485
[...]
POINT_DATA 15810
 FIELD attributes 1
U 3 15810 float
20.0048 	-0.000294858 	-0.000187563 20.0048 	-0.000288817 	-0.000192826 20.0047 	-0.000282776 	-0.000198089 20.0047 	-0.000276735 	-0.000203352 20.0046 	-0.000270694 	-0.000208615 20.0045 	-0.000264653 	-0.000213877 20.0088 	-0.00053785 	-6.7287e-05 20.0088 	-0.000537829 	-6.72845e-05 20.0088 	-0.000537808 	-6.72819e-05 20.0088 	-0.000537788 	-6.72793e-05 20.0047 	-8.28738e-05 	-0.000205494 20.0094 	-0.0005063 	-8.2845e-05 20.0094 	-0.000506276 	-8.28411e-05 20.0094 	-0.000506252 	-8.28372e-05 20.0094 	-0.000506229 	-8.28333e-05 20.005 	-8.87422e-05 	-0.000207135 20.0099 	-0.000501373 	-9.87758e-05 20.0099 	-0.000501345 	-9.87702e-05 20.0099 	-0.000501317 	-9.87647e-05 20.0099 	-0.000501289 	-9.87592e-05 20.0053 	-0.000249443 	-0.000203646 20.0105 	-0.000507834 	-0.000111547 20.0105 	-0.000507802 	-0.00011154 20.0105 	-0.00050777 	-0.000111533 20.0105 	-0.000507738 	-0.000111526 20.0056 	-9.87263e-05 	-0.000223731 20.0111 	-0.000508156 	-0.000122011 20.0111 	-0.000508121 	-0.000122003 20.0111 	-0.000508086 	-0.000121994 20.0111 	-0.000508051 	-0.000121986 20.0059 	-0.000102856 	-0.000231563 20.0118 	-0.000519485 	-0.000130323 20.0118 	-0.000519447 	-0.000130314 20.0118 	-0.000519408 	-0.000130304 20.0118 	-0.000519369 	-0.000130294 20.0063 	-0.000266187 	-0.000227092 20.0125 	-0.000531557 	-0.000137666 20.0125 	-0.000531515 	-0.000137655 20.0125 	-0.000531473 	-0.000137644 20.0125 	-0.000531432 	-0.000137633 20.0066 	-0.000276194 	-0.000234409 20.0132 	-0.000548952 	-0.000145607 20.0132 	-0.000548906 	-0.000145595 20.0132 	-0.000548861 	-0.000145583 20.0132 	-0.000548815 	-0.000145571 20.007 	-0.000126635 	-0.000253633 20.0139 	-0.000574049 	-0.000152598 20.0139 	-0.000573999 	-0.000152584 20.0139 	-0.000573949 	-0.000152571 20.0139 	-0.000573899 	-0.000152558 20.0073 	-0.000136817 	-0.000260823 20.0147 	-0.00058817 	-0.000158798 20.0147 	-0.000588116 	-0.000158783 20.0147 	-0.000588063 	-0.000158769 20.0147 	-0.00058801 	-0.000158755 20.0077 	-0.0001444 	-0.000267748 20.0154 	-0.00060185 	-0.000165116 20.0154 	-0.000601793 	-0.000165101 20.0154 	-0.000601736 	-0.000165085 20.0154 	-0.00060168 	-0.00016507 20.0081 	-0.000323469 	-0.00026254 20.0163 	-0.000615914 	-0.000170797 20.0163 	-0.000615854 	-0.000170781 20.0163 	-0.000615794 	-0.000170764 20.0163 	-0.000615734 	-0.000170748 20.0086 	-0.000333834 	-0.000269426 20.0171 	-0.000631482 	-0.000176325 20.0171 	-0.000631419 	-0.000176307 20.0171 	-0.000631355 	-0.000176289 20.0171 	-0.000631292 	-0.000176272 20.009 	-0.000169671 	-0.000287684 20.018 	-0.000655515 	-0.000182156 20.018 	-0.000655447 	-0.000182138 20.018 	-0.000655379 	-0.000182119 20.018 	-0.000655311 	-0.0001821 20.0094 	-0.000357662 	-0.000282826 20.0189 	-0.000669805 	-0.000188677 20.0188 	-0.000669733 	-0.000188656 20.0188 	-0.00066966 	-0.000188636 20.0188 	-0.000669588 	-0.000188616 20.0099 	-0.000368543 	-0.000289401 20.0198 	-0.000689387 	-0.000194758 20.0198 	-0.00068931 	-0.000194736 20.0198 	-0.000689233 	-0.000194714 20.0198 	-0.000689157 	-0.000194693 20.0103 	-0.000196809 	-0.00030715 20.0207 	-0.000707187 	-0.000200442 20.0207 	-0.000707106 	-0.000200419 20.0207 	-0.000707025 	-0.000200396 20.0207 	-0.000706944 	-0.000200373 20.0108 	-0.000206717 	-0.000312765 20.0217 	-0.000722673 	-0.000204676 20.0217 	-0.000722588 	-0.000204652 20.0217 	-0.000722503 	-0.000204628 20.0217 	-0.000722419 	-0.000204604 20.0113 	-0.000216155 	-0.000317989 20.0227 	-0.000738497 	-0.000209265 20.0227 	-0.000738408 	-0.00020924 20.0227 	-0.00073832 	-0.000209215 20.0227 	-0.000738231 	-0.00020919 20.0118 	-0.0004106 	-0.000311896 20.0237 	-0.000754639 	-0.000213917 20.0237 	-0.000754546 	-0.00021389 20.0237 	-0.000754454 	-0.000213864 20.0237 	-0.000754361 	-0.000213838 20.0123 	-0.000235156 	-0.000327987 20.0247 	-0.000783457 	-0.000218174 20.0247 	-0.000783359 	-0.000218147 20.0247 	-0.000783261 	-0.00021812 20.0247 	-0.000783163 	-0.000218093 20.0128 	-0.000246414 	-0.000332476 20.0258 	-0.000800573 	-0.000221964 20.0258 	-0.000800471 	-0.000221936 20.0258 	-0.000800369 	-0.000221908 20.0258 	-0.000800267 	-0.000221879 20.0134 	-0.000443747 	-0.0003254 20.0269 	-0.000817831 	-0.000225638 20.0269 	-0.000817726 	-0.000225608 20.0269 	-0.00081762 	-0.000225579 20.0268 	-0.000817514 	-0.00022555 20.0139 	-0.000454125 	-0.000328996 20.0279 	-0.000838162 	-0.000228547 20.0279 	-0.000838052 	-0.000228517 20.0279 	-0.000837941 	-0.000228487 20.0279 	-0.000837831 	-0.000228457 20.0145 	-0.000278443 	-0.000343054 20.029 	-0.000863477 	-0.000231676 20.029 	-0.000863362 	-0.000231645 20.029 	-0.000863247 	-0.000231614 20.029 	-0.000863132 	-0.000231583 20.015 	-0.000290453 	-0.000345699 20.0302 	-0.000882448 	-0.000234022 20.0302 	-0.000882329 	-0.00023399 20.0302 	-0.000882211 	-0.000233959 20.0302 	-0.000882092 	-0.000233927 20.0156 	-0.000301101 	-0.000347669 20.0313 	-0.00090133 	-0.00023615 20.0313 	-0.000901208 	-0.000236118 20.0313 	-0.000901085 	-0.000236086 20.0313 	-0.000900963 	-0.000236053 20.0162 	-0.000498786 	-0.000338424 20.0324 	-0.00092089 	-0.000237351 20.0324 	-0.000920764 	-0.000237318 20.0324 	-0.000920638 	-0.000237286 20.0324 	-0.000920512 	-0.000237253 20.0168 	-0.000509172 	-0.00033929 20.0336 	-0.000942342 	-0.000238655 20.0336 	-0.000942213 	-0.000238622 20.0336 	-0.000942083 	-0.000238589 20.0336 	-0.000941954 	-0.000238556 20.0173 	-0.000338306 	-0.000349718 20.0347 	-0.000973944 	-0.000238538 20.0347 	-0.00097381 	-0.000238505 20.0347 	-0.000973676 	-0.000238472 20.0347 	-0.000973542 	-0.000238439 20.0179 	-0.000534671 	-0.000338745 20.0359 	-0.000994338 	-0.000238341 20.0359 	-0.000994201 	-0.000238309 20.0359 	-0.000994065 	-0.000238276 20.0359 	-0.000993928 	-0.000238243 20.0185 	-0.000547197 	-0.000337544 20.037 	-0.00102663 	-0.000237569 20.037 	-0.00102649 	-0.000237536 20.037 	-0.00102635 	-0.000237503 20.037 	-0.00102621 	-0.000237471 20.0191 	-0.000383687 	-0.000345752 20.0382 	-0.00105166 	-0.000236195 20.0382 	-0.00105152 	-0.000236163 20.0381 	-0.00105138 	-0.000236131 20.0381 	-0.00105123 	-0.000236098 20.0196 	-0.00039763 	-0.000342911 20.0393 	-0.00107302 	-0.000234181 20.0393 	-0.00107288 	-0.000234149 20.0393 	-0.00107273 	-0.000234117 20.0393 	-0.00107259 	-0.000234085 20.0202 	-0.000410543 	-0.000339371 20.0404 	-0.00109489 	-0.000231691 20.0404 	-0.00109474 	-0.00023166 20.0404 	-0.00109459 	-0.000231629 20.0404 	-0.00109445 	-0.000231598 20.0208 	-0.000591897 	-0.000325498 20.0415 	-0.00111692 	-0.000228672 20.0415 	-0.00111677 	-0.000228642 20.0415 	-0.00111662 	-0.000228611 20.0415 	-0.00111647 	-0.000228581 20.0214 	-0.000439998 	-0.000330282 20.0426 	-0.00115409 	-0.000224949 20.0426 	-0.00115394 	-0.000224919 20.0426 	-0.00115379 	-0.00022489 20.0426 	-0.00115364 	-0.000224861 20.0219 	-0.000457411 	-0.000324658 20.0437 	-0.00117722 	-0.000220665 20.0437 	-0.00117707 	-0.000220636 20.0437 	-0.00117692 	-0.000220608 20.0437 	-0.00117677 	-0.00022058 20.0225 	-0.00062752 	-0.000309036 20.0448 	-0.0012046 	-0.00021617 20.0448 	-0.00120445 	-0.000216143 20.0448 	-0.00120429 	-0.000216116 20.0448 	-0.00120414 	-0.000216089 20.023 	-0.000640247 	-0.000302213 20.0458 	-0.00123804 	-0.000211034 20.0458 	-0.00123789 	-0.000211008 20.0458 	-0.00123774 	-0.000210982 20.0458 	-0.00123759 	-0.000210956 20.0235 	-0.000508566 	-0.000303592 20.0469 	-0.0012657 	-0.000205665 20.0468 	-0.00126555 	-0.00020564 20.0468 	-0.0012654 	-0.000205616 20.0468 	-0.00126524 	-0.000205591 20.024 	-0.000524939 	-0.000295278 20.0478 	-0.00129016 	-0.000199617 20.0478 	-0.00129001 	-0.000199594 20.0478 	-0.00128986 	-0.00019957 20.0478 	-0.00128971 	-0.000199547 20.0245 	-0.000540308 	-0.000286378 20.0488 	-0.00131494 	-0.000193363 20.0488 	-0.00131479 	-0.000193341 20.0488 	-0.00131464 	-0.00019332 20.0488 	-0.00131449 	-0.000193298 20.0251 	-0.000685568 	-0.00026838 20.0497 	-0.0013404 	-0.000186231 20.0497 	-0.00134025 	-0.000186211 20.0497 	-0.00134011 	-0.00018619 20.0497 	-0.00133996 	-0.00018617 20.0255 	-0.000698576 	-0.000258417 20.0506 	-0.00138044 	-0.000178653 20.0506 	-0.00138029 	-0.000178635 20.0506 	-0.00138015 	-0.000178616 20.0506 	-0.00138001 	-0.000178598 20.026 	-0.000597422 	-0.000256291 20.0515 	-0.00141758 	-0.000169916 20.0515 	-0.00141744 	-0.000169899 20.0515 	-0.0014173 	-0.000169882 20.0515 	-0.00141716 	-0.000169865 20.0264 	-0.000727 	-0.000236927 20.0524 	-0.00144342 	-0.000161947 20.0523 	-0.00144328 	-0.000161932 20.0523 	-0.00144314 	-0.000161916 20.0523 	-0.00144301 	-0.000161901 20.0268 	-0.000738489 	-0.000225831 20.0531 	-0.0014735 	-0.000153657 20.0531 	-0.00147337 	-0.000153643 20.0531 	-0.00147324 	-0.00015363 20.0531 	-0.00147311 	-0.000153616 20.0272 	-0.000652982 	-0.000222259 20.0539 	-0.00150488 	-0.000143473 20.0539 	-0.00150475 	-0.000143461 20.0539 	-0.00150462 	-0.000143449 20.0539 	-0.0015045 	-0.000143437 20.0276 	-0.000671432 	-0.000210104 20.0546 	-0.00153211 	-0.000132069 20.0546 	-0.00153199 	-0.000132058 20.0546 	-0.00153187 	-0.000132048 20.0546 	-0.00153175 	-0.000132038 20.028 	-0.000688565 	-0.000197549 20.0553 	-0.00156011 	-0.000121394 20.0553 	-0.00156 	-0.000121385 20.0553 	-0.00155989 	-0.000121377 20.0553 	-0.00155977 	-0.000121368 20.0283 	-0.00078437 	-0.000177499 20.0559 	-0.00158884 	-0.00011101 20.0559 	-0.00158873 	-0.000111003 20.0559 	-0.00158863 	-0.000110996 20.0559 	-0.00158853 	-0.000110989 20.0286 	-0.000726984 	-0.000171449 20.0565 	-0.00163219 	-0.000100573 20.0565 	-0.00163209 	-0.000100567 20.0565 	-0.00163199 	-0.000100561 20.0565 	-0.0016319 	-0.000100555 20.0289 	-0.000748439 	-0.000158011 20.057 	-0.0016619 	-9.10627e-05 20.057 	-0.00166181 	-9.10578e-05 20.057 	-0.00166172 	-9.1053e-05 20.057 	-0.00166163 	-9.10482e-05 20.0292 	-0.000825129 	-0.000137745 20.0575 	-0.00169652 	-8.18738e-05 20.0575 	-0.00169644 	-8.18699e-05 20.0575 	-0.00169636 	-8.1866e-05 20.0575 	-0.00169628 	-8.18621e-05 20.0295 	-0.000839915 	-0.000124339 20.058 	-0.00173602 	-7.21882e-05 20.058 	-0.00173595 	-7.21852e-05 20.058 	-0.00173587 	-7.21822e-05 20.058 	-0.0017358 	-7.21791e-05 20.0297 	-0.000811482 	-0.000117188 20.0584 	-0.00176982 	-6.31994e-05 20.0584 	-0.00176975 	-6.31971e-05 20.0584 	-0.00176968 	-6.31948e-05 20.0584 	-0.00176962 	-6.31924e-05 20.0299 	-0.000831178 	-0.000103531 20.0587 	-0.00180156 	-5.43013e-05 20.0587 	-0.0018015 	-5.42995e-05 20.0587 	-0.00180145 	-5.42978e-05 20.0587 	-0.00180139 	-5.42961e-05 20.0301 	-0.000850273 	-9.00194e-05 20.0591 	-0.0018341 	-4.54897e-05 20.0591 	-0.00183406 	-4.54884e-05 20.0591 	-0.00183401 	-4.54872e-05 20.0591 	-0.00183396 	-4.5486e-05 20.0303 	-0.000893614 	-7.0852e-05 20.0593 	-0.00186764 	-3.67739e-05 20.0593 	-0.0018676 	-3.67731e-05 20.0593 	-0.00186756 	-3.67723e-05 20.0593 	-0.00186752 	-3.67715e-05 20.0304 	-0.000909534 	-5.75546e-05 20.0596 	-0.00191174 	-2.77898e-05 20.0596 	-0.00191171 	-2.77893e-05 20.0596 	-0.00191168 	-2.77889e-05 20.0596 	-0.00191165 	-2.77884e-05 20.0305 	-0.000916702 	-4.98254e-05 20.0597 	-0.00195304 	-1.82515e-05 20.0597 	-0.00195302 	-1.82513e-05 20.0597 	-0.00195299 	-1.82511e-05 20.0597 	-0.00195297 	-1.82509e-05 20.0306 	-0.000942777 	-3.12687e-05 20.0599 	-0.00198757 	-9.32966e-06 20.0599 	-0.00198756 	-9.32961e-06 20.0599 	-0.00198755 	-9.32956e-06 20.0599 	-0.00198754 	-9.32951e-06 20.0307 	-0.000959151 	-2.39687e-05 20.06 	-0.00202577 	-2.04747e-06 20.06 	-0.00202577 	-2.04746e-06 20.06 	-0.00202576 	-2.04746e-06 20.06 	-0.00202576 	-2.04746e-06 20.0307 	-0.000979994 	-1.16248e-05 20.06 	-0.00206118 	6.41689e-06 20.06 	-0.00206118 	6.41691e-06 20.06 	-0.00206119 	6.41693e-06 20.06 	-0.0020612 	6.41696e-06 20.0307 	-0.00100085 	7.09489e-07 20.0601 	-0.00209686 	1.51517e-05 20.0601 	-0.00209688 	1.51518e-05 20.0601 	-0.0020969 	1.5152e-05 20.0601 	-0.00209692 	1.51521e-05 20.0307 	-0.00102181 	1.25087e-05 20.06 	-0.0021337 	2.2558e-05 20.06 	-0.00213373 	2.25583e-05 20.06 	-0.00213376 	2.25586e-05 20.06 	-0.00213378 	2.25589e-05 20.0307 	-0.00102077 	2.80371e-05 20.06 	-0.00217276 	3.08878e-05 20.06 	-0.0021728 	3.08883e-05 20.06 	-0.00217284 	3.08889e-05 20.06 	-0.00217288 	3.08894e-05 20.0307 	-0.00106523 	3.49326e-05 20.0599 	-0.0022132 	3.90806e-05 20.0599 	-0.00221325 	3.90815e-05 20.0599 	-0.0022133 	3.90824e-05 20.0599 	-0.00221335 	3.90833e-05 20.0306 	-0.0010875 	4.56225e-05 20.0597 	-0.00225204 	4.63287e-05 20.0597 	-0.0022521 	4.633e-05 20.0597 	-0.00225216 	4.63312e-05 20.0597 	-0.00225222 	4.63325e-05 20.0306 	-0.00107345 	5.96823e-05 20.0596 	-0.00229268 	5.31373e-05 20.0596 	-0.00229275 	5.31389e-05 20.0596 	-0.00229282 	5.31406e-05 20.0596 	-0.00229289 	5.31422e-05 20.0305 	-0.0010924 	6.9469e-05 20.0594 	-0.00233846 	6.05275e-05 20.0594 	-0.00233854 	6.05296e-05 20.0594 	-0.00233862 	6.05318e-05 20.0594 	-0.00233871 	6.05339e-05 20.0304 	-0.00115643 	7.48022e-05 20.0591 	-0.00238104 	6.70802e-05 20.0591 	-0.00238114 	6.70829e-05 20.0591 	-0.00238123 	6.70855e-05 20.0591 	-0.00238132 	6.70881e-05 20.0303 	-0.00117938 	8.36347e-05 20.0589 	-0.00242254 	7.31279e-05 20.0589 	-0.00242264 	7.3131e-05 20.0589 	-0.00242274 	7.31342e-05 20.0589 	-0.00242285 	7.31373e-05 20.0301 	-0.00120164 	9.21525e-05 20.0586 	-0.0024655 	7.97194e-05 20.0586 	-0.00246562 	7.97232e-05 20.0586 	-0.00246573 	7.97269e-05 20.0586 	-0.00246585 	7.97306e-05 20.03 	-0.00116845 	0.000103512 20.0582 	-0.0025103 	8.53624e-05 20.0582 	-0.00251042 	8.53667e-05 20.0582 	-0.00251055 	8.53709e-05 20.0582 	-0.00251067 	8.53752e-05 20.0299 	-0.00118924 	0.000110862 20.0579 	-0.00255527 	9.1341e-05 20.0579 	-0.00255541 	9.13459e-05 20.0579 	-0.00255555 	9.13508e-05 20.0579 	-0.00255568 	9.13556e-05 20.0297 	-0.00127222 	0.000115283 20.0575 	-0.00260282 	9.77325e-05 20.0575 	-0.00260297 	9.77381e-05 20.0575 	-0.00260312 	9.77436e-05 20.0575 	-0.00260327 	9.77492e-05 20.0295 	-0.0012951 	0.000122359 20.0571 	-0.00264751 	0.000103328 20.0571 	-0.00264767 	0.000103335 20.0571 	-0.00264783 	0.000103341 20.0571 	-0.00264799 	0.000103347 20.0293 	-0.00124874 	0.000130989 20.0567 	-0.00269399 	0.000108192 20.0567 	-0.00269416 	0.000108199 20.0567 	-0.00269433 	0.000108206 20.0567 	-0.00269451 	0.000108213 20.0291 	-0.0012681 	0.000136444 20.0562 	-0.00274057 	0.00011283 20.0563 	-0.00274076 	0.000112838 20.0563 	-0.00274094 	0.000112845 20.0563 	-0.00274112 	0.000112853 20.0288 	-0.00136196 	0.00013995 20.0558 	-0.00277869 	0.000117444 20.0558 	-0.00277888 	0.000117452 20.0558 	-0.00277907 	0.00011746 20.0558 	-0.00277926 	0.000117468 20.0286 	-0.00138066 	0.000144869 20.0553 	-0.00282044 	0.000120595 20.0553 	-0.00282063 	0.000120603 20.0553 	-0.00282083 	0.000120611 20.0553 	-0.00282103 	0.00012062 20.0284 	-0.00132088 	0.000149208 20.0548 	-0.00286557 	0.000123762 20.0548 	-0.00286578 	0.00012377 20.0548 	-0.00286599 	0.000123779 20.0549 	-0.00286619 	0.000123788 20.0282 	-0.00142107 	0.000152957 20.0543 	-0.00289421 	0.000126505 20.0543 	-0.00289442 	0.000126515 20.0543 	-0.00289464 	0.000126524 20.0543 	-0.00289485 	0.000126533 20.0279 	-0.0014385 	0.000156249 20.0538 	-0.00293785 	0.000128228 20.0538 	-0.00293807 	0.000128237 20.0538 	-0.00293829 	0.000128247 20.0538 	-0.00293851 	0.000128257 20.0277 	-0.00137344 	0.000158479 20.0533 	-0.00298255 	0.000129665 20.0533 	-0.00298277 	0.000129675 20.0533 	-0.002983 	0.000129685 20.0533 	-0.00298322 	0.000129695 20.0274 	-0.00139247 	0.000160672 20.0528 	-0.00302368 	0.00013166 20.0528 	-0.00302391 	0.00013167 20.0528 	-0.00302414 	0.00013168 20.0528 	-0.00302437 	0.00013169 20.0272 	-0.00150052 	0.000163443 20.0523 	-0.0030588 	0.000133531 20.0523 	-0.00305904 	0.000133542 20.0523 	-0.00305928 	0.000133552 20.0523 	-0.00305952 	0.000133563 20.0269 	-0.00151954 	0.00016495 20.0517 	-0.0031012 	0.000134569 20.0517 	-0.00310145 	0.00013458 20.0517 	-0.00310169 	0.00013459 20.0517 	-0.00310193 	0.000134601 20.0266 	-0.00154035 	0.000166073 20.0512 	-0.00314402 	0.000136229 20.0512 	-0.00314427 	0.00013624 20.0512 	-0.00314452 	0.000136251 20.0512 	-0.00314477 	0.000136262 20.0264 	-0.00146566 	0.000165253 20.0507 	-0.00318748 	0.000137366 20.0507 	-0.00318774 	0.000137377 20.0507 	-0.00318799 	0.000137388 20.0507 	-0.00318825 	0.000137399 20.0261 	-0.00148601 	0.00016568 20.0501 	-0.0032264 	0.000139214 20.0501 	-0.00322666 	0.000139225 20.0501 	-0.00322692 	0.000139236 20.0501 	-0.00322718 	0.000139248 20.0259 	-0.00159764 	0.000167805 20.0496 	-0.0032487 	0.000139786 20.0496 	-0.00324896 	0.000139797 20.0496 	-0.00324923 	0.000139808 20.0496 	-0.00324949 	0.00013982 20.0256 	-0.00151637 	0.000165168 20.0491 	-0.00329271 	0.000140407 20.0491 	-0.00329298 	0.000140419 20.0491 	-0.00329325 	0.00014043 20.0491 	-0.00329352 	0.000140442 20.0254 	-0.00152965 	0.000164483 20.0485 	-0.00330864 	0.000140691 20.0485 	-0.00330891 	0.000140703 20.0485 	-0.00330918 	0.000140714 20.0485 	-0.00330945 	0.000140726 20.0251 	-0.00153914 	0.000163606 20.048 	-0.0033454 	0.00014254 20.048 	-0.00334568 	0.000142552 20.048 	-0.00334596 	0.000142564 20.048 	-0.00334623 	0.000142576 20.0248 	-0.00164606 	0.000167111 20.0475 	-0.00333984 	0.000142118 20.0475 	-0.00334012 	0.00014213 20.0475 	-0.00334039 	0.000142142 20.0475 	-0.00334067 	0.000142153 20.0246 	-0.00165135 	0.000166431 20.047 	-0.0033793 	0.000141811 20.047 	-0.00337958 	0.000141823 20.047 	-0.00337986 	0.000141834 20.047 	-0.00338013 	0.000141846 20.0243 	-0.00156767 	0.000157987 20.0465 	-0.00341871 	0.000141332 20.0465 	-0.00341899 	0.000141344 20.0465 	-0.00341927 	0.000141356 20.0465 	-0.00341955 	0.000141367 20.0241 	-0.00168396 	0.000164273 20.046 	-0.00344661 	0.00014103 20.046 	-0.00344689 	0.000141042 20.046 	-0.00344718 	0.000141053 20.046 	-0.00344746 	0.000141065 20.0238 	-0.00169854 	0.000162743 20.0455 	-0.00348392 	0.000140154 20.0455 	-0.0034842 	0.000140166 20.0455 	-0.00348449 	0.000140177 20.0455 	-0.00348477 	0.000140189 20.0236 	-0.00161713 	0.000152327 20.045 	-0.00352179 	0.000139865 20.045 	-0.00352208 	0.000139876 20.045 	-0.00352236 	0.000139888 20.045 	-0.00352265 	0.000139899 20.0234 	-0.0016287 	0.000150054 20.0445 	-0.00352639 	0.000139017 20.0445 	-0.00352667 	0.000139028 20.0445 	-0.00352696 	0.000139039 20.0445 	-0.00352724 	0.000139051 20.0231 	-0.00173433 	0.000157369 20.044 	-0.00355207 	0.000139003 20.044 	-0.00355236 	0.000139014 20.044 	-0.00355264 	0.000139025 20.0441 	-0.00355293 	0.000139036 20.0229 	-0.00174634 	0.00015534 20.0436 	-0.00358692 	0.000137953 20.0436 	-0.00358721 	0.000137964 20.0436 	-0.00358749 	0.000137975 20.0436 	-0.00358778 	0.000137986 20.0227 	-0.00176151 	0.000153298 20.0431 	-0.00362059 	0.000138583 20.0431 	-0.00362088 	0.000138594 20.0431 	-0.00362117 	0.000138605 20.0431 	-0.00362146 	0.000138616 20.0225 	-0.00167393 	0.000140615 20.0427 	-0.00365336 	0.000138303 20.0427 	-0.00365366 	0.000138314 20.0427 	-0.00365395 	0.000138325 20.0427 	-0.00365424 	0.000138336 20.0223 	-0.00168677 	0.000138278 20.0423 	-0.00366734 	0.000139088 20.0423 	-0.00366764 	0.0001391 20.0423 	-0.00366793 	0.000139111 20.0423 	-0.00366823 	0.000139122 20.022 	-0.00178912 	0.00014681 20.0419 	-0.00364646 	0.000137199 20.0419 	-0.00364675 	0.00013721 20.0419 	-0.00364704 	0.000137221 20.0419 	-0.00364732 	0.000137232 20.0218 	-0.00168981 	0.000132398 20.0414 	-0.00367812 	0.000135713 20.0414 	-0.00367841 	0.000135724 20.0415 	-0.0036787 	0.000135734 20.0415 	-0.00367899 	0.000135745 20.0216 	-0.00169272 	0.000129314 20.041 	-0.00366833 	0.000135252 20.041 	-0.00366862 	0.000135262 20.0411 	-0.00366891 	0.000135273 20.0411 	-0.00366919 	0.000135283 20.0214 	-0.00179395 	0.000139969 20.0407 	-0.00368257 	0.000136623 20.0407 	-0.00368286 	0.000136634 20.0407 	-0.00368315 	0.000136644 20.0407 	-0.00368344 	0.000136655 20.0212 	-0.00179165 	0.000138273 20.0403 	-0.00370507 	0.000136718 20.0403 	-0.00370536 	0.000136729 20.0403 	-0.00370565 	0.00013674 20.0403 	-0.00370595 	0.00013675 20.0211 	-0.00178899 	0.000136535 20.0399 	-0.00372579 	0.000136612 20.0399 	-0.00372608 	0.00