# vtk DataFile Version 2.0
track0
ASCII
DATASET POLYDATA
POINTS 15780 float
-1.001 -0.05 0.0011
-1.0008 -0.05 0.0011
-1.0006 -0.05 0.0011
-1.0004 -0.05 0.0011
-1.0002 -0.05 0.0011
-1 -0.05 0.0011
-0.9875 -0.05 0.0011
-0.975 -0.05 0.0011
-0.9625 -0.05 0.0011
-0.95 -0.05 0.0011
-0.9375 -0.05 0.00109999
-0.925 -0.05 0.00109999
-0.9125 -0.05 0.00109999
-0.9 -0.05 0.00109999
-0.8875 -0.05 0.00109999
-0.875 -0.05 0.00109999
-0.8625 -0.05 0.00109999
-0.85 -0.05 0.00109999
-0.8375 -0.05 0.00109998
-0.825 -0.0500001 0.00109998
-0.8125 -0.0500001 0.00109998
-0.8 -0.0500001 0.00109998
-0.7875 -0.0500001 0.00109998
-0.775 -0.0500001 0.00109998
-0.7625 -0.0500001 0.00109998
-0.75 -0.0500001 0.00109998
-0.7375 -0.0500001 0.00109997
-0.725 -0.0500001 0.00109997
-0.7125 -0.0500001 0.00109997
-0.7 -0.0500001 0.00109997
-0.6875 -0.0500001 0.00109997
-0.675 -0.0500001 0.00109997
-0.6625 -0.0500001 0.00109997
-0.65 -0.0500001 0.00109996
-0.6375 -0.0500001 0.00109996
-0.625 -0.0500001 0.00109996
-0.6125 -0.0500001 0.00109996
-0.6 -0.0500001 0.00109996
-0.5875 -0.0500001 0.00109996
-0.575 -0.0500001 0.00109996
-0.5625 -0.0500001 0.00109996
-0.55 -0.0500001 0.00109995
-0.5375 -0.0500001 0.00109995
-0.525 -0.0500001 0.00109995
-0.5125 -0.0500001 0.00109995
-0.5 -0.0500001 0.00109995
-0.4875 -0.0500001 0.00109995
-0.475 -0.0500001 0.00109995
-0.4625 -0.0500001 0.00109994
-0.45 -0.0500002 0.00109994
-0.4375 -0.0500002 0.00109994
-0.425 -0.0500002 0.00109994
-0.4125 -0.0500002 0.00109994
-0.4 -0.0500002 0.00109994
-0.3875 -0.0500002 0.00109994
-0.375 -0.0500002 0.00109994
-0.3625 -0.0500002 0.00109993
-0.35 -0.0500002 0.00109993
-0.3375 -0.0500002 0.00109993
-0.325 -0.0500002 0.00109993
-0.3125 -0.0500002 0.00109993
-0.3 -0.0500002 0.00109993
-0.2875 -0.0500002 0.00109993
-0.275 -0.0500002 0.00109993
-0.2625 -0.0500002 0.00109992
-0.25 -0.0500002 0.00109992
-0.2375 -0.0500002 0.00109992
-0.225 -0.0500002 0.00109992
-0.2125 -0.0500002 0.00109992
-0.2 -0.0500002 0.00109992
-0.1875 -0.0500002 0.00109992
-0.175 -0.0500002 0.00109992
-0.1625 -0.0500002 0.00109991
-0.15 -0.0500002 0.00109991
-0.1375 -0.0500002 0.00109991
-0.125 -0.0500002 0.00109991
-0.1125 -0.0500002 0.00109991
-0.1 -0.0500002 0.00109991
-0.0875 -0.0500002 0.00109991
-0.075 -0.0500002 0.00109991
-0.0625 -0.0500002 0.00109991
-0.05 -0.0500003 0.00109991
-0.0375 -0.0500003 0.0010999
-0.025 -0.0500003 0.0010999
-0.0125 -0.0500003 0.0010999
2.10607e-13 -0.0500003 0.0010999
0.0125 -0.0500003 0.0010999
0.025 -0.0500003 0.0010999
0.0375 -0.0500003 0.0010999
0.05 -0.0500003 0.0010999
0.0625 -0.0500003 0.0010999
0.075 -0.0500003 0.0010999
0.0875 -0.0500003 0.0010999
0.1 -0.0500003 0.00109989
0.1125 -0.0500003 0.00109989
0.125 -0.0500003 0.00109989
0.1375 -0.0500003 0.00109989
0.15 -0.0500003 0.00109989
0.1625 -0.0500003 0.00109989
0.175 -0.0500003 0.00109989
0.1875 -0.0500003 0.00109989
0.2 -0.0500003 0.00109989
0.2125 -0.0500003 0.00109989
0.225 -0.0500003 0.00109989
0.2375 -0.0500003 0.00109989
0.25 -0.0500003 0.00109989
0.2625 -0.0500003 0.00109988
0.275 -0.0500003 0.00109988
0.2875 -0.0500003 0.00109988
0.3 -0.0500003 0.00109988
0.3125 -0.0500003 0.00109988
0.325 -0.0500003 0.00109988
0.3375 -0.0500003 0.00109988
0.35 -0.0500003 0.00109988
0.3625 -0.0500003 0.00109988
0.375 -0.0500003 0.00109988
0.3875 -0.0500003 0.00109988
0.4 -0.0500004 0.00109988
0.4125 -0.0500004 0.00109988
0.425 -0.0500004 0.00109988
0.4375 -0.0500004 0.00109988
0.45 -0.0500004 0.00109988
0.4625 -0.0500004 0.00109988
0.475 -0.0500004 0.00109988
0.4875 -0.0500004 0.00109988
0.5 -0.0500004 0.00109988
0.5125 -0.0500004 0.00109988
0.525 -0.0500004 0.00109988
0.5375 -0.0500004 0.00109988
0.55 -0.0500004 0.00109988
0.5625 -0.0500004 0.00109988
0.575 -0.0500004 0.00109987
0.5875 -0.0500004 0.00109987
0.6 -0.0500004 0.00109987
0.6125 -0.0500004 0.00109987
0.625 -0.0500004 0.00109987
0.6375 -0.0500004 0.00109987
0.65 -0.0500004 0.00109987
0.6625 -0.0500004 0.00109987
0.675 -0.0500004 0.00109987
0.6875 -0.0500004 0.00109987
0.7 -0.0500004 0.00109987
0.7125 -0.0500004 0.00109987
0.725 -0.0500004 0.00109987
0.7375 -0.0500004 0.00109987
0.75 -0.0500004 0.00109987
0.7625 -0.0500004 0.00109987
0.775 -0.0500004 0.00109987
0.7875 -0.0500004 0.00109987
0.8 -0.0500004 0.00109987
0.8125 -0.0500004 0.00109987
0.825 -0.0500004 0.00109987
0.8375 -0.0500004 0.00109987
0.85 -0.0500004 0.00109987
0.8625 -0.0500004 0.00109987
0.875 -0.0500004 0.00109987
0.8875 -0.0500004 0.00109987
0.9 -0.0500004 0.00109987
0.9125 -0.0500005 0.00109988
0.925 -0.0500005 0.00109988
0.9375 -0.0500005 0.00109988
0.95 -0.0500005 0.00109988
0.9625 -0.0500005 0.00109988
0.975 -0.0500005 0.00109988
0.9875 -0.0500005 0.00109988
1 -0.0500005 0.00109988
1.0125 -0.0500005 0.00109988
1.025 -0.0500005 0.00109988
1.0375 -0.0500005 0.00109988
1.05 -0.0500005 0.00109988
1.0625 -0.0500005 0.00109988
1.075 -0.0500005 0.00109988
1.0875 -0.0500005 0.00109988
1.1 -0.0500005 0.00109988
1.1125 -0.0500005 0.00109988
1.125 -0.0500005 0.00109988
1.1375 -0.0500005 0.00109988
1.15 -0.0500005 0.00109988
1.1625 -0.0500005 0.00109988
1.175 -0.0500005 0.00109988
1.1875 -0.0500005 0.00109988
1.2 -0.0500005 0.00109988
1.2125 -0.0500005 0.00109988
1.225 -0.0500005 0.00109988
1.2375 -0.0500005 0.00109989
1.25 -0.0500005 0.00109989
1.2625 -0.0500005 0.00109989
1.275 -0.0500005 0.00109989
1.2875 -0.0500005 0.00109989
1.3 -0.0500005 0.00109989
1.3125 -0.0500005 0.00109989
1.325 -0.0500005 0.00109989
1.3375 -0.0500005 0.00109989
1.35 -0.0500005 0.00109989
1.3625 -0.0500005 0.00109989
1.375 -0.0500005 0.00109989
1.3875 -0.0500005 0.00109989
1.4 -0.0500005 0.00109989
1.4125 -0.0500005 0.00109989
1.425 -0.0500005 0.00109989
1.4375 -0.0500005 0.0010999
1.45 -0.0500005 0.0010999
1.4625 -0.0500005 0.0010999
1.475 -0.0500005 0.0010999
1.4875 -0.0500005 0.0010999
1.5 -0.0500006 0.0010999
1.5125 -0.0500006 0.0010999
1.525 -0.0500006 0.0010999
1.5375 -0.0500006 0.0010999
1.55 -0.0500006 0.0010999
1.5625 -0.0500006 0.0010999
1.575 -0.0500006 0.0010999
1.5875 -0.0500006 0.0010999
1.6 -0.0500006 0.0010999
1.6125 -0.0500006 0.00109991
1.625 -0.0500006 0.00109991
1.6375 -0.0500006 0.00109991
1.65 -0.0500006 0.00109991
1.6625 -0.0500006 0.00109991
1.675 -0.0500006 0.00109991
1.6875 -0.0500006 0.00109991
1.7 -0.0500006 0.00109991
1.7125 -0.0500006 0.00109991
1.725 -0.0500006 0.00109991
1.7375 -0.0500006 0.00109991
1.75 -0.0500006 0.00109991
1.7625 -0.0500006 0.00109992
1.775 -0.0500006 0.00109992
1.7875 -0.0500006 0.00109992
1.8 -0.0500006 0.00109992
1.8125 -0.0500006 0.00109992
1.825 -0.0500006 0.00109992
1.8375 -0.0500006 0.00109992
1.85 -0.0500006 0.00109992
1.8625 -0.0500006 0.00109992
1.875 -0.0500006 0.00109992
1.8875 -0.0500006 0.00109992
1.9 -0.0500006 0.00109992
1.9125 -0.0500006 0.00109993
1.925 -0.0500006 0.00109993
1.9375 -0.0500006 0.00109993
1.95 -0.0500006 0.00109993
1.9625 -0.0500006 0.00109993
1.975 -0.0500006 0.00109993
1.9875 -0.0500006 0.00109993
2 -0.0500006 0.00109993
2.0125 -0.0500006 0.00109993
2.025 -0.0500006 0.00109993
2.0375 -0.0500006 0.00109993
2.05 -0.0500006 0.00109993
2.0625 -0.0500006 0.00109994
2.075 -0.0500006 0.00109994
2.0875 -0.0500006 0.00109994
2.1 -0.0500006 0.00109994
2.1125 -0.0500006 0.00109994
2.125 -0.0500006 0.00109994
2.1375 -0.0500006 0.00109994
2.15 -0.0500006 0.00109994
2.1625 -0.0500006 0.00109994
2.175 -0.0500007 0.00109994
2.1875 -0.0500007 0.00109994
2.2 -0.0500007 0.00109994
2.2125 -0.0500007 0.00109994
2.225 -0.0500007 0.00109995
2.2375 -0.0500007 0.00109995
2.25 -0.0500007 0.00109995
2.2625 -0.0500007 0.00109995
2.275 -0.0500007 0.00109995
2.2875 -0.0500007 0.00109995
2.3 -0.0500007 0.00109995
2.3125 -0.0500007 0.00109995
2.325 -0.0500007 0.00109995
2.3375 -0.0500007 0.00109995
2.35 -0.0500007 0.00109995
2.3625 -0.0500007 0.00109995
2.375 -0.0500007 0.00109995
2.3875 -0.0500007 0.00109996
2.4 -0.0500007 0.00109996
2.4125 -0.0500007 0.00109996
2.425 -0.0500007 0.00109996
2.4375 -0.0500007 0.00109996
2.45 -0.0500007 0.00109996
2.4625 -0.0500007 0.00109996
2.475 -0.0500007 0.00109996
2.4875 -0.0500007 0.00109996
2.5 -0.0500007 0.00109996
2.5125 -0.0500007 0.00109996
2.525 -0.0500007 0.00109996
2.5375 -0.0500007 0.00109996
2.55 -0.0500007 0.00109996
2.5625 -0.0500007 0.00109997
2.575 -0.0500007 0.00109997
2.5875 -0.0500007 0.00109997
2.6 -0.0500007 0.00109997
2.6125 -0.0500007 0.00109997
2.625 -0.0500007 0.00109997
2.6375 -0.0500007 0.00109997
2.65 -0.0500007 0.00109997
2.6625 -0.0500007 0.00109997
2.675 -0.0500007 0.00109997
2.6875 -0.0500007 0.00109997
2.7 -0.0500007 0.00109997
2.7125 -0.0500007 0.00109997
2.725 -0.0500007 0.00109997
2.7375 -0.0500007 0.00109997
2.75 -0.0500007 0.00109997
2.7625 -0.0500007 0.00109998
2.775 -0.0500007 0.00109998
2.7875 -0.0500007 0.00109998
2.8 -0.0500007 0.00109998
2.8125 -0.0500007 0.00109998
2.825 -0.0500007 0.00109998
2.8375 -0.0500007 0.00109998
2.85 -0.0500007 0.00109998
2.8625 -0.0500008 0.00109998
2.875 -0.0500008 0.00109998
2.8875 -0.0500008 0.00109998
2.9 -0.0500008 0.00109998
2.9125 -0.0500008 0.00109998
2.925 -0.0500008 0.00109998
2.9375 -0.0500008 0.00109998
2.95 -0.0500008 0.00109998
2.9625 -0.0500008 0.00109998
2.975 -0.0500008 0.00109998
2.9875 -0.0500008 0.00109998
3 -0.0500008 0.00109998
3.0125 -0.0500008 0.00109999
3.025 -0.0500008 0.00109999
3.0375 -0.0500008 0.00109999
3.05 -0.0500008 0.00109999
3.0625 -0.0500008 0.00109999
3.075 -0.0500008 0.00109999
3.0875 -0.0500008 0.00109999
3.1 -0.0500008 0.00109999
3.1125 -0.0500008 0.00109999
3.125 -0.0500008 0.00109999
3.1375 -0.0500008 0.00109999
3.15 -0.0500008 0.00109999
3.1625 -0.0500008 0.00109999
3.175 -0.0500008 0.00109999
3.1875 -0.0500008 0.00109999
3.2 -0.0500008 0.00109999
3.2125 -0.0500008 0.00109999
3.225 -0.0500008 0.00109999
3.2375 -0.0500008 0.00109999
3.25 -0.0500008 0.00109999
3.2625 -0.0500008 0.00109999
3.275 -0.0500008 0.00109999
3.2875 -0.0500008 0.00109999
3.3 -0.0500008 0.00109999
3.3125 -0.0500008 0.00109999
3.325 -0.0500008 0.00109999
3.3375 -0.0500008 0.00109999
3.35 -0.0500008 0.0011
3.3625 -0.0500008 0.0011
[...]
POINT_DATA 15780
 FIELD attributes 1
U 3 15780 float
30.0002 	-7.01785e-06 	-6.30587e-06 30.0002 	-6.84337e-06 	-6.51453e-06 30.0002 	-6.66888e-06 	-6.7232e-06 30.0002 	-6.49439e-06 	-6.93187e-06 30.0002 	-6.3199e-06 	-7.14054e-06 30.0002 	-6.14542e-06 	-7.3492e-06 30.0004 	-1.23851e-05 	-1.26099e-06 30.0004 	-1.23851e-05 	-1.26099e-06 30.0004 	-1.23851e-05 	-1.26099e-06 30.0004 	-1.23851e-05 	-1.26099e-06 30.0002 	-7.04736e-08 	-6.84366e-06 30.0005 	-1.0709e-05 	-1.68704e-06 30.0005 	-1.0709e-05 	-1.68704e-06 30.0005 	-1.07089e-05 	-1.68704e-06 30.0005 	-1.07089e-05 	-1.68704e-06 30.0002 	-7.21462e-08 	-6.59607e-06 30.0005 	-9.95836e-06 	-2.08022e-06 30.0005 	-9.95835e-06 	-2.08022e-06 30.0005 	-9.95834e-06 	-2.08022e-06 30.0005 	-9.95834e-06 	-2.08022e-06 30.0003 	-4.59301e-06 	-6.24725e-06 30.0005 	-9.69158e-06 	-2.34895e-06 30.0005 	-9.69158e-06 	-2.34894e-06 30.0005 	-9.69157e-06 	-2.34894e-06 30.0005 	-9.69156e-06 	-2.34894e-06 30.0003 	-7.57228e-08 	-6.57614e-06 30.0005 	-9.52337e-06 	-2.49782e-06 30.0005 	-9.52336e-06 	-2.49781e-06 30.0005 	-9.52335e-06 	-2.49781e-06 30.0005 	-9.52335e-06 	-2.49781e-06 30.0003 	-7.747e-08 	-6.52625e-06 30.0005 	-9.387e-06 	-2.55606e-06 30.0005 	-9.38699e-06 	-2.55606e-06 30.0005 	-9.38698e-06 	-2.55605e-06 30.0005 	-9.38697e-06 	-2.55605e-06 30.0003 	-4.2668e-06 	-6.08528e-06 30.0005 	-9.27956e-06 	-2.55829e-06 30.0005 	-9.27956e-06 	-2.55828e-06 30.0005 	-9.27955e-06 	-2.55828e-06 30.0005 	-9.27954e-06 	-2.55828e-06 30.0003 	-4.19918e-06 	-5.97788e-06 30.0006 	-9.18733e-06 	-2.53042e-06 30.0006 	-9.18733e-06 	-2.53042e-06 30.0006 	-9.18732e-06 	-2.53041e-06 30.0006 	-9.18731e-06 	-2.53041e-06 30.0003 	-8.27404e-08 	-6.20125e-06 30.0006 	-9.09725e-06 	-2.48117e-06 30.0006 	-9.09724e-06 	-2.48117e-06 30.0006 	-9.09724e-06 	-2.48117e-06 30.0006 	-9.09723e-06 	-2.48116e-06 30.0003 	-8.44868e-08 	-6.05422e-06 30.0006 	-9.00479e-06 	-2.4136e-06 30.0006 	-9.00478e-06 	-2.4136e-06 30.0006 	-9.00477e-06 	-2.41359e-06 30.0006 	-9.00476e-06 	-2.41359e-06 30.0003 	-8.624e-08 	-5.88781e-06 30.0006 	-8.90864e-06 	-2.32972e-06 30.0006 	-8.90863e-06 	-2.32971e-06 30.0006 	-8.90862e-06 	-2.32971e-06 30.0006 	-8.90862e-06 	-2.32971e-06 30.0003 	-3.93774e-06 	-5.36346e-06 30.0006 	-8.8086e-06 	-2.23274e-06 30.0006 	-8.80859e-06 	-2.23274e-06 30.0006 	-8.80858e-06 	-2.23273e-06 30.0006 	-8.80857e-06 	-2.23273e-06 30.0003 	-3.86395e-06 	-5.16475e-06 30.0006 	-8.70429e-06 	-2.12413e-06 30.0006 	-8.70429e-06 	-2.12413e-06 30.0006 	-8.70428e-06 	-2.12413e-06 30.0006 	-8.70427e-06 	-2.12413e-06 30.0003 	-9.14937e-08 	-5.28457e-06 30.0006 	-8.59611e-06 	-2.00507e-06 30.0006 	-8.5961e-06 	-2.00507e-06 30.0006 	-8.59609e-06 	-2.00507e-06 30.0006 	-8.59609e-06 	-2.00507e-06 30.0003 	-3.70434e-06 	-4.71939e-06 30.0007 	-8.48474e-06 	-1.87668e-06 30.0007 	-8.48474e-06 	-1.87667e-06 30.0007 	-8.48473e-06 	-1.87667e-06 30.0007 	-8.48472e-06 	-1.87667e-06 30.0003 	-3.61925e-06 	-4.4743e-06 30.0007 	-8.37141e-06 	-1.73884e-06 30.0007 	-8.3714e-06 	-1.73883e-06 30.0007 	-8.3714e-06 	-1.73883e-06 30.0007 	-8.37139e-06 	-1.73883e-06 30.0004 	-9.67469e-08 	-4.54319e-06 30.0007 	-8.25987e-06 	-1.59803e-06 30.0007 	-8.25987e-06 	-1.59803e-06 30.0007 	-8.25986e-06 	-1.59803e-06 30.0007 	-8.25986e-06 	-1.59803e-06 30.0004 	-9.85045e-08 	-4.27124e-06 30.0007 	-8.14788e-06 	-1.46323e-06 30.0007 	-8.14788e-06 	-1.46323e-06 30.0007 	-8.14787e-06 	-1.46323e-06 30.0007 	-8.14787e-06 	-1.46323e-06 30.0004 	-1.00252e-07 	-3.98927e-06 30.0007 	-8.01982e-06 	-1.32072e-06 30.0007 	-8.01982e-06 	-1.32072e-06 30.0007 	-8.01982e-06 	-1.32072e-06 30.0007 	-8.01981e-06 	-1.32072e-06 30.0004 	-3.25095e-06 	-3.37795e-06 30.0007 	-7.88105e-06 	-1.16801e-06 30.0007 	-7.88104e-06 	-1.16801e-06 30.0007 	-7.88104e-06 	-1.16801e-06 30.0007 	-7.88104e-06 	-1.16801e-06 30.0004 	-1.03704e-07 	-3.40288e-06 30.0007 	-7.74514e-06 	-1.00788e-06 30.0007 	-7.74514e-06 	-1.00788e-06 30.0007 	-7.74514e-06 	-1.00788e-06 30.0007 	-7.74513e-06 	-1.00788e-06 30.0004 	-1.05432e-07 	-3.10327e-06 30.0007 	-7.61102e-06 	-8.41866e-07 30.0007 	-7.61102e-06 	-8.41866e-07 30.0007 	-7.61101e-06 	-8.41865e-07 30.0007 	-7.61101e-06 	-8.41865e-07 30.0004 	-2.93181e-06 	-2.48788e-06 30.0007 	-7.47525e-06 	-6.70217e-07 30.0007 	-7.47525e-06 	-6.70217e-07 30.0007 	-7.47525e-06 	-6.70217e-07 30.0007 	-7.47525e-06 	-6.70216e-07 30.0004 	-2.82536e-06 	-2.18312e-06 30.0007 	-7.34316e-06 	-4.97063e-07 30.0007 	-7.34316e-06 	-4.97063e-07 30.0007 	-7.34316e-06 	-4.97063e-07 30.0007 	-7.34316e-06 	-4.97062e-07 30.0004 	-1.10554e-07 	-2.17111e-06 30.0007 	-7.21539e-06 	-3.17337e-07 30.0007 	-7.21539e-06 	-3.17337e-07 30.0007 	-7.21538e-06 	-3.17337e-07 30.0007 	-7.21538e-06 	-3.17337e-07 30.0004 	-1.12245e-07 	-1.85337e-06 30.0007 	-7.09866e-06 	-1.38231e-07 30.0007 	-7.09866e-06 	-1.38231e-07 30.0007 	-7.09866e-06 	-1.38231e-07 30.0007 	-7.09866e-06 	-1.38231e-07 30.0004 	-1.13912e-07 	-1.54903e-06 30.0007 	-6.98534e-06 	4.08367e-08 30.0007 	-6.98534e-06 	4.08367e-08 30.0007 	-6.98534e-06 	4.08367e-08 30.0007 	-6.98534e-06 	4.08367e-08 30.0004 	-2.43896e-06 	-9.58504e-07 30.0007 	-6.87175e-06 	2.1465e-07 30.0007 	-6.87175e-06 	2.1465e-07 30.0007 	-6.87175e-06 	2.1465e-07 30.0007 	-6.87175e-06 	2.1465e-07 30.0004 	-2.34737e-06 	-6.82303e-07 30.0007 	-6.75366e-06 	3.90704e-07 30.0007 	-6.75366e-06 	3.90704e-07 30.0007 	-6.75366e-06 	3.90704e-07 30.0007 	-6.75366e-06 	3.90704e-07 30.0004 	-1.1893e-07 	-7.0978e-07 30.0007 	-6.64321e-06 	5.6436e-07 30.0007 	-6.64321e-06 	5.6436e-07 30.0007 	-6.64321e-06 	5.6436e-07 30.0007 	-6.64321e-06 	5.6436e-07 30.0004 	-2.16707e-06 	-1.45442e-07 30.0007 	-6.53624e-06 	7.27385e-07 30.0007 	-6.53624e-06 	7.27385e-07 30.0007 	-6.53624e-06 	7.27386e-07 30.0007 	-6.53624e-06 	7.27386e-07 30.0004 	-2.08141e-06 	1.13836e-07 30.0007 	-6.43095e-06 	8.78823e-07 30.0007 	-6.43095e-06 	8.78823e-07 30.0007 	-6.43095e-06 	8.78824e-07 30.0007 	-6.43096e-06 	8.78824e-07 30.0004 	-1.23888e-07 	7.05724e-08 30.0007 	-6.32344e-06 	1.01778e-06 30.0007 	-6.32345e-06 	1.01778e-06 30.0007 	-6.32345e-06 	1.01778e-06 30.0007 	-6.32345e-06 	1.01778e-06 30.0004 	-1.25497e-07 	3.15806e-07 30.0007 	-6.21708e-06 	1.14061e-06 30.0007 	-6.21708e-06 	1.14062e-06 30.0007 	-6.21709e-06 	1.14062e-06 30.0007 	-6.21709e-06 	1.14062e-06 30.0004 	-1.27087e-07 	5.45526e-07 30.0007 	-6.11582e-06 	1.25632e-06 30.0007 	-6.11582e-06 	1.25632e-06 30.0007 	-6.11583e-06 	1.25632e-06 30.0007 	-6.11583e-06 	1.25632e-06 30.0004 	-1.76463e-06 	1.03209e-06 30.0007 	-6.0231e-06 	1.37127e-06 30.0007 	-6.0231e-06 	1.37127e-06 30.0007 	-6.0231e-06 	1.37127e-06 30.0007 	-6.02311e-06 	1.37127e-06 30.0004 	-1.30195e-07 	9.36945e-07 30.0007 	-5.94344e-06 	1.4885e-06 30.0007 	-5.94344e-06 	1.4885e-06 30.0007 	-5.94345e-06 	1.4885e-06 30.0007 	-5.94345e-06 	1.4885e-06 30.0004 	-1.31699e-07 	1.10457e-06 30.0007 	-5.87221e-06 	1.59289e-06 30.0007 	-5.87222e-06 	1.59289e-06 30.0007 	-5.87222e-06 	1.59289e-06 30.0007 	-5.87222e-06 	1.59289e-06 30.0004 	-1.59173e-06 	1.53878e-06 30.0007 	-5.80258e-06 	1.67932e-06 30.0007 	-5.80259e-06 	1.67932e-06 30.0007 	-5.80259e-06 	1.67932e-06 30.0007 	-5.8026e-06 	1.67932e-06 30.0003 	-1.54451e-06 	1.67822e-06 30.0007 	-5.73454e-06 	1.75011e-06 30.0007 	-5.73454e-06 	1.75012e-06 30.0007 	-5.73455e-06 	1.75012e-06 30.0007 	-5.73455e-06 	1.75012e-06 30.0003 	-1.36383e-07 	1.52474e-06 30.0006 	-5.66938e-06 	1.80982e-06 30.0006 	-5.66938e-06 	1.80982e-06 30.0006 	-5.66939e-06 	1.80982e-06 30.0006 	-5.66939e-06 	1.80982e-06 30.0003 	-1.37921e-07 	1.63228e-06 30.0006 	-5.60927e-06 	1.85995e-06 30.0006 	-5.60928e-06 	1.85995e-06 30.0006 	-5.60928e-06 	1.85996e-06 30.0006 	-5.60928e-06 	1.85996e-06 30.0003 	-1.39371e-07 	1.72401e-06 30.0006 	-5.55494e-06 	1.90045e-06 30.0006 	-5.55494e-06 	1.90045e-06 30.0006 	-5.55495e-06 	1.90045e-06 30.0006 	-5.55495e-06 	1.90045e-06 30.0003 	-1.38913e-06 	2.07105e-06 30.0006 	-5.50607e-06 	1.93111e-06 30.0006 	-5.50607e-06 	1.93111e-06 30.0006 	-5.50608e-06 	1.93111e-06 30.0006 	-5.50608e-06 	1.93111e-06 30.0003 	-1.36208e-06 	2.13098e-06 30.0006 	-5.46231e-06 	1.95184e-06 30.0006 	-5.46231e-06 	1.95184e-06 30.0006 	-5.46232e-06 	1.95185e-06 30.0006 	-5.46232e-06 	1.95185e-06 30.0003 	-1.43337e-07 	1.90828e-06 30.0006 	-5.42347e-06 	1.96279e-06 30.0006 	-5.42348e-06 	1.9628e-06 30.0006 	-5.42348e-06 	1.9628e-06 30.0006 	-5.42349e-06 	1.9628e-06 30.0003 	-1.32365e-06 	2.20768e-06 30.0006 	-5.38947e-06 	1.96432e-06 30.0006 	-5.38948e-06 	1.96432e-06 30.0006 	-5.38948e-06 	1.96433e-06 30.0006 	-5.38949e-06 	1.96433e-06 30.0003 	-1.31185e-06 	2.22556e-06 30.0006 	-5.36025e-06 	1.95692e-06 30.0006 	-5.36026e-06 	1.95692e-06 30.0006 	-5.36026e-06 	1.95692e-06 30.0006 	-5.36026e-06 	1.95692e-06 30.0003 	-1.47133e-07 	1.96619e-06 30.0005 	-5.33573e-06 	1.94112e-06 30.0005 	-5.33573e-06 	1.94112e-06 30.0005 	-5.33573e-06 	1.94112e-06 30.0005 	-5.33574e-06 	1.94112e-06 30.0003 	-1.48356e-07 	1.96059e-06 30.0005 	-5.31568e-06 	1.91793e-06 30.0005 	-5.31569e-06 	1.91793e-06 30.0005 	-5.31569e-06 	1.91793e-06 30.0005 	-5.31569e-06 	1.91793e-06 30.0003 	-1.49551e-07 	1.94426e-06 30.0005 	-5.30004e-06 	1.88799e-06 30.0005 	-5.30005e-06 	1.88799e-06 30.0005 	-5.30005e-06 	1.888e-06 30.0005 	-5.30005e-06 	1.888e-06 30.0003 	-1.30921e-06 	2.17902e-06 30.0005 	-5.28865e-06 	1.85189e-06 30.0005 	-5.28866e-06 	1.85189e-06 30.0005 	-5.28866e-06 	1.8519e-06 30.0005 	-5.28867e-06 	1.8519e-06 30.0003 	-1.51854e-07 	1.88232e-06 30.0005 	-5.28133e-06 	1.81007e-06 30.0005 	-5.28133e-06 	1.81007e-06 30.0005 	-5.28134e-06 	1.81007e-06 30.0005 	-5.28134e-06 	1.81007e-06 30.0003 	-1.52953e-07 	1.83819e-06 30.0005 	-5.27783e-06 	1.76315e-06 30.0005 	-5.27784e-06 	1.76315e-06 30.0005 	-5.27784e-06 	1.76315e-06 30.0005 	-5.27784e-06 	1.76315e-06 30.0003 	-1.34836e-06 	2.0441e-06 30.0005 	-5.27795e-06 	1.71161e-06 30.0005 	-5.27795e-06 	1.71161e-06 30.0005 	-5.27796e-06 	1.71161e-06 30.0005 	-5.27796e-06 	1.71161e-06 30.0003 	-1.36841e-06 	1.98426e-06 30.0005 	-5.28149e-06 	1.65597e-06 30.0005 	-5.28149e-06 	1.65598e-06 30.0005 	-5.28149e-06 	1.65598e-06 30.0005 	-5.2815e-06 	1.65598e-06 30.0002 	-1.56105e-07 	1.66283e-06 30.0005 	-5.28824e-06 	1.59666e-06 30.0005 	-5.28825e-06 	1.59666e-06 30.0005 	-5.28825e-06 	1.59666e-06 30.0005 	-5.28825e-06 	1.59666e-06 30.0002 	-1.57143e-07 	1.59258e-06 30.0004 	-5.29816e-06 	1.53414e-06 30.0004 	-5.29816e-06 	1.53414e-06 30.0004 	-5.29816e-06 	1.53414e-06 30.0004 	-5.29817e-06 	1.53414e-06 30.0002 	-1.58203e-07 	1.51771e-06 30.0004 	-5.31106e-06 	1.46887e-06 30.0004 	-5.31106e-06 	1.46887e-06 30.0004 	-5.31107e-06 	1.46887e-06 30.0004 	-5.31107e-06 	1.46887e-06 30.0002 	-1.48002e-06 	1.69064e-06 30.0004 	-5.32657e-06 	1.40141e-06 30.0004 	-5.32657e-06 	1.40142e-06 30.0004 	-5.32657e-06 	1.40142e-06 30.0004 	-5.32657e-06 	1.40142e-06 30.0002 	-1.51453e-06 	1.60715e-06 30.0004 	-5.34444e-06 	1.33217e-06 30.0004 	-5.34444e-06 	1.33217e-06 30.0004 	-5.34445e-06 	1.33217e-06 30.0004 	-5.34445e-06 	1.33217e-06 30.0002 	-1.61412e-07 	1.27189e-06 30.0004 	-5.36444e-06 	1.26146e-06 30.0004 	-5.36444e-06 	1.26146e-06 30.0004 	-5.36445e-06 	1.26146e-06 30.0004 	-5.36445e-06 	1.26146e-06 30.0002 	-1.58985e-06 	1.43252e-06 30.0004 	-5.38623e-06 	1.18979e-06 30.0004 	-5.38624e-06 	1.18979e-06 30.0004 	-5.38624e-06 	1.18979e-06 30.0004 	-5.38624e-06 	1.18979e-06 30.0002 	-1.63033e-06 	1.34244e-06 30.0004 	-5.40983e-06 	1.11745e-06 30.0004 	-5.40983e-06 	1.11745e-06 30.0004 	-5.40984e-06 	1.11745e-06 30.0004 	-5.40984e-06 	1.11745e-06 30.0002 	-1.64416e-07 	1.0061e-06 30.0004 	-5.43499e-06 	1.04478e-06 30.0004 	-5.43499e-06 	1.04478e-06 30.0004 	-5.43499e-06 	1.04478e-06 30.0004 	-5.435e-06 	1.04478e-06 30.0002 	-1.65369e-07 	9.15631e-07 30.0004 	-5.46061e-06 	9.72246e-07 30.0004 	-5.46062e-06 	9.72246e-07 30.0004 	-5.46062e-06 	9.72247e-07 30.0004 	-5.46062e-06 	9.72247e-07 30.0002 	-1.66267e-07 	8.25008e-07 30.0004 	-5.48663e-06 	8.99468e-07 30.0004 	-5.48663e-06 	8.99468e-07 30.0004 	-5.48663e-06 	8.99469e-07 30.0004 	-5.48663e-06 	8.99469e-07 30.0002 	-1.80722e-06 	9.75451e-07 30.0004 	-5.51338e-06 	8.25937e-07 30.0004 	-5.51338e-06 	8.25937e-07 30.0004 	-5.51338e-06 	8.25938e-07 30.0004 	-5.51339e-06 	8.25938e-07 30.0002 	-1.67955e-07 	6.43641e-07 30.0003 	-5.54312e-06 	7.51979e-07 30.0003 	-5.54312e-06 	7.51979e-07 30.0003 	-5.54312e-06 	7.5198e-07 30.0003 	-5.54313e-06 	7.5198e-07 30.0002 	-1.68788e-07 	5.52648e-07 30.0003 	-5.57758e-06 	6.77438e-07 30.0003 	-5.57758e-06 	6.77438e-07 30.0003 	-5.57758e-06 	6.77439e-07 30.0003 	-5.57758e-06 	6.77439e-07 30.0002 	-1.95556e-06 	7.01344e-07 30.0003 	-5.61441e-06 	6.04369e-07 30.0003 	-5.61441e-06 	6.04369e-07 30.0003 	-5.61441e-06 	6.04369e-07 30.0003 	-5.61441e-06 	6.04369e-07 30.0002 	-2.00775e-06 	6.11713e-07 30.0003 	-5.65054e-06 	5.34662e-07 30.0003 	-5.65054e-06 	5.34662e-07 30.0003 	-5.65054e-06 	5.34662e-07 30.0003 	-5.65054e-06 	5.34662e-07 30.0002 	-1.71273e-07 	2.80948e-07 30.0003 	-5.68165e-06 	4.67642e-07 30.0003 	-5.68165e-06 	4.67642e-07 30.0003 	-5.68165e-06 	4.67642e-07 30.0003 	-5.68165e-06 	4.67643e-07 30.0002 	-1.72102e-07 	1.97335e-07 30.0003 	-5.71006e-06 	4.03203e-07 30.0003 	-5.71006e-06 	4.03203e-07 30.0003 	-5.71006e-06 	4.03203e-07 30.0003 	-5.71006e-06 	4.03203e-07 30.0002 	-1.72895e-07 	1.16405e-07 30.0003 	-5.73821e-06 	3.3924e-07 30.0003 	-5.73821e-06 	3.3924e-07 30.0003 	-5.73821e-06 	3.3924e-07 30.0003 	-5.73821e-06 	3.3924e-07 30.0002 	-2.20101e-06 	2.74113e-07 30.0003 	-5.76616e-06 	2.75272e-07 30.0003 	-5.76616e-06 	2.75272e-07 30.0003 	-5.76616e-06 	2.75272e-07 30.0003 	-5.76616e-06 	2.75272e-07 30.0002 	-2.24794e-06 	1.96371e-07 30.0003 	-5.79297e-06 	2.10794e-07 30.0003 	-5.79297e-06 	2.10794e-07 30.0003 	-5.79297e-06 	2.10794e-07 30.0003 	-5.79298e-06 	2.10794e-07 30.0002 	-1.75079e-07 	-1.09139e-07 30.0003 	-5.82102e-06 	1.48798e-07 30.0003 	-5.82102e-06 	1.48798e-07 30.0003 	-5.82102e-06 	1.48798e-07 30.0003 	-5.82102e-06 	1.48798e-07 30.0002 	-2.34173e-06 	4.46888e-08 30.0003 	-5.85027e-06 	9.00038e-08 30.0003 	-5.85027e-06 	9.00038e-08 30.0003 	-5.85027e-06 	9.00038e-08 30.0003 	-5.85027e-06 	9.00038e-08 30.0002 	-2.38904e-06 	-2.90858e-08 30.0003 	-5.88068e-06 	3.48302e-08 30.0003 	-5.88069e-06 	3.48302e-08 30.0003 	-5.88069e-06 	3.48302e-08 30.0003 	-5.88069e-06 	3.48302e-08 30.0002 	-1.771e-07 	-3.30763e-07 30.0003 	-5.91254e-06 	-1.70432e-08 30.0003 	-5.91254e-06 	-1.70432e-08 30.0003 	-5.91254e-06 	-1.70432e-08 30.0003 	-5.91254e-06 	-1.70432e-08 30.0002 	-1.77745e-07 	-4.01796e-07 30.0003 	-5.94564e-06 	-6.90179e-08 30.0003 	-5.94564e-06 	-6.90179e-08 30.0003 	-5.94564e-06 	-6.90179e-08 30.0003 	-5.94564e-06 	-6.90178e-08 30.0002 	-1.78345e-07 	-4.67068e-07 30.0003 	-5.97757e-06 	-1.23279e-07 30.0003 	-5.97757e-06 	-1.23279e-07 30.0003 	-5.97757e-06 	-1.23279e-07 30.0003 	-5.97757e-06 	-1.23279e-07 30.0002 	-2.58056e-06 	-3.01365e-07 30.0003 	-6.00533e-06 	-1.77922e-07 30.0003 	-6.00533e-06 	-1.77922e-07 30.0003 	-6.00533e-06 	-1.77922e-07 30.0003 	-6.00533e-06 	-1.77922e-07 30.0002 	-1.79515e-07 	-5.84878e-07 30.0003 	-6.02947e-06 	-2.29177e-07 30.0003 	-6.02947e-06 	-2.29177e-07 30.0003 	-6.02947e-06 	-2.29177e-07 30.0003 	-6.02947e-06 	-2.29177e-07 30.0002 	-1.80119e-07 	-6.42138e-07 30.0003 	-6.0527e-06 	-2.76138e-07 30.0003 	-6.0527e-06 	-2.76138e-07 30.0003 	-6.0527e-06 	-2.76138e-07 30.0003 	-6.0527e-06 	-2.76138e-07 30.0002 	-2.7086e-06 	-4.78968e-07 30.0003 	-6.07653e-06 	-3.19621e-07 30.0003 	-6.07653e-06 	-3.19621e-07 30.0003 	-6.07653e-06 	-3.19621e-07 30.0003 	-6.07653e-06 	-3.19621e-07 30.0002 	-2.74964e-06 	-5.34013e-07 30.0003 	-6.10086e-06 	-3.61146e-07 30.0003 	-6.10086e-06 	-3.61146e-07 30.0003 	-6.10086e-06 	-3.61146e-07 30.0003 	-6.10085e-06 	-3.61146e-07 30.0002 	-1.8185e-07 	-8.03777e-07 30.0003 	-6.12489e-06 	-4.01341e-07 30.0003 	-6.12489e-06 	-4.01341e-07 30.0003 	-6.12489e-06 	-4.01341e-07 30.0003 	-6.12489e-06 	-4.01341e-07 30.0001 	-1.8239e-07 	-8.53095e-07 30.0003 	-6.14826e-06 	-4.40334e-07 30.0003 	-6.14826e-06 	-4.40334e-07 30.0003 	-6.14826e-06 	-4.40334e-07 30.0003 	-6.14826e-06 	-4.40334e-07 30.0001 	-1.82909e-07 	-9.00303e-07 30.0003 	-6.17088e-06 	-4.77957e-07 30.0003 	-6.17088e-06 	-4.77957e-07 30.0003 	-6.17088e-06 	-4.77957e-07 30.0003 	-6.17088e-06 	-4.77957e-07 30.0001 	-2.9091e-06 	-7.31447e-07 30.0003 	-6.19264e-06 	-5.14175e-07 30.0003 	-6.19264e-06 	-5.14175e-07 30.0003 	-6.19264e-06 	-5.14175e-07 30.0003 	-6.19264e-06 	-5.14175e-07 30.0001 	-2.94697e-06 	-7.75574e-07 30.0003 	-6.21363e-06 	-5.48792e-07 30.0003 	-6.21363e-06 	-5.48792e-07 30.0003 	-6.21363e-06 	-5.48792e-07 30.0003 	-6.21362e-06 	-5.48792e-07 30.0001 	-1.84414e-07 	-1.02951e-06 30.0003 	-6.23376e-06 	-5.82003e-07 30.0003 	-6.23376e-06 	-5.82003e-07 30.0003 	-6.23376e-06 	-5.82003e-07 30.0003 	-6.23376e-06 	-5.82003e-07 30.0001 	-3.01997e-06 	-8.57463e-07 30.0003 	-6.253e-06 	-6.13848e-07 30.0003 	-6.253e-06 	-6.13848e-07 30.0003 	-6.253e-06 	-6.13848e-07 30.0003 	-6.253e-06 	-6.13848e-07 30.0001 	-3.05506e-06 	-8.95472e-07 30.0003 	-6.27148e-06 	-6.44375e-07 30.0003 	-6.27148e-06 	-6.44375e-07 30.0003 	-6.27148e-06 	-6.44375e-07 30.0003 	-6.27148e-06 	-6.44375e-07 30.0001 	-1.85821e-07 	-1.14083e-06 30.0003 	-6.2893e-06 	-6.73576e-07 30.0003 	-6.2893e-06 	-6.73576e-07 30.0003 	-6.2893e-06 	-6.73576e-07 30.0003 	-6.28929e-06 	-6.73575e-07 30.0001 	-1.8628e-07 	-1.17458e-06 30.0003 	-6.3063e-06 	-7.01394e-07 30.0003 	-6.30629e-06 	-7.01394e-07 30.0003 	-6.30629e-06 	-7.01394e-07 30.0003 	-6.30629e-06 	-7.01394e-07 30.0001 	-1.86718e-07 	-1.20666e-06 30.0003 	-6.32235e-06 	-7.27827e-07 30.0003 	-6.32235e-06 	-7.27827e-07 30.0003 	-6.32235e-06 	-7.27827e-07 30.0003 	-6.32235e-06 	-7.27827e-07 30.0001 	-3.18649e-06 	-1.031e-06 30.0003 	-6.33759e-06 	-7.52941e-07 30.0003 	-6.33758e-06 	-7.52941e-07 30.0003 	-6.33758e-06 	-7.5294e-07 30.0003 	-6.33758e-06 	-7.5294e-07 30.0001 	-1.87561e-07 	-1.26595e-06 30.0003 	-6.3521e-06 	-7.7691e-07 30.0003 	-6.3521e-06 	-7.7691e-07 30.0003 	-6.35209e-06 	-7.76909e-07 30.0003 	-6.35209e-06 	-7.76909e-07 30.0001 	-1.87976e-07 	-1.2933e-06 30.0003 	-6.36589e-06 	-7.99782e-07 30.0003 	-6.36588e-06 	-7.99782e-07 30.0003 	-6.36588e-06 	-7.99781e-07 30.0003 	-6.36588e-06 	-7.99781e-07 30.0001 	-3.27586e-06 	-1.11605e-06 30.0003 	-6.37894e-06 	-8.21512e-07 30.0003 	-6.37894e-06 	-8.21512e-07 30.0003 	-6.37894e-06 	-8.21512e-07 30.0003 	-6.37893e-06 	-8.21512e-07 30.0001 	-3.30397e-06 	-1.14153e-06 30.0003 	-6.39129e-06 	-8.41948e-07 30.0003 	-6.39129e-06 	-8.41948e-07 30.0003 	-6.39129e-06 	-8.41947e-07 30.0003 	-6.39129e-06 	-8.41947e-07 30.0001 	-1.89158e-07 	-1.36685e-06 30.0003 	-6.40291e-06 	-8.61344e-07 30.0003 	-6.40291e-06 	-8.61344e-07 30.0003 	-6.4029e-06 	-8.61343e-07 30.0003 	-6.4029e-06 	-8.61343e-07 30.0001 	-1.89537e-07 	-1.38872e-06 30.0003 	-6.41383e-06 	-8.79784e-07 30.0003 	-6.41382e-06 	-8.79784e-07 30.0003 	-6.41382e-06 	-8.79783e-07 30.0003 	-6.41382e-06 	-8.79783e-07 30.0001 	-1.89907e-07 	-1.40938e-06 30.0003 	-6.42405e-06 	-8.9727e-07 30.0003 	-6.42405e-06 	-8.97269e-07 30.0003 	-6.42404e-06 	-8.97269e-07 30.0003 	-6.42404e-06 	-8.97269e-07 30.0001 	-3.40828e-06 	-1.23053e-06 30.0003 	-6.4336e-06 	-9.13858e-07 30.0003 	-6.43359e-06 	-9.13858e-07 30.0003 	-6.43359e-06 	-9.13858e-07 30.0003 	-6.43359e-06 	-9.13857e-07 30.0001 	-3.43241e-06 	-1.24986e-06 30.0003 	-6.44254e-06 	-9.29545e-07 30.0003 	-6.44254e-06 	-9.29545e-07 30.0003 	-6.44254e-06 	-9.29544e-07 30.0003 	-6.44253e-06 	-9.29544e-07 30.0001 	-1.91002e-07 	-1.46454e-06 30.0003 	-6.45085e-06 	-9.44394e-07 30.0003 	-6.45085e-06 	-9.44394e-07 30.0003 	-6.45085e-06 	-9.44394e-07 30.0003 	-6.45084e-06 	-9.44393e-07 30.0001 	-3.47851e-06 	-1.28535e-06 30.0003 	-6.45851e-06 	-9.58401e-07 30.0003 	-6.4585e-06 	-9.58401e-07 30.0003 	-6.4585e-06 	-9.58401e-07 30.0003 	-6.4585e-06 	-9.584e-07 30.0001 	-3.50056e-06 	-1.30161e-06 30.0003 	-6.46558e-06 	-9.71697e-07 30.0003 	-6.46557e-06 	-9.71697e-07 30.0003 	-6.46557e-06 	-9.71696e-07 30.0