# vtk DataFile Version 2.0
sampleSurface
ASCII
DATASET POLYDATA
POINTS 9400 float
2.60369e-12 7.88861e-31 0 2.60369e-12 7.88861e-31 0.01875 -0.0625 0 0 0.0625 0
0 -0.0625 2.04574e-18 0.01875 0.0625 2.27264e-18 0.01875 2.45838e-12 -7.88861e-31 0.0805546
0.0625 0 0.080548 -0.0625 0 0.0805619 -0.125 0 0 0.125
0 0 -0.125 0 0.01875 0.125 0 0.01875 2.44092e-12 0
0.142361 0.125 -2.36236e-18 0.080537 -0.125 -1.99734e-18 0.0805727 0.155198 9.86076e-32 0
0.0625 2.25713e-18 0.142348 -0.0625 6.58074e-19 0.142376 0.155198 9.86076e-32 0.01875 -0.1875
0 0 0.1875 -1.97215e-31 0 0.17003 9.86076e-32 0.0805311 -0.1875 6.18262e-19
0.01875 0.1875 1.13376e-18 0.01875 0.125 0 0.142327 -0.125 -1.57772e-30 0.142397
0.1875 0 0.0805288 -0.1875 1.57772e-30 0.0805786 2.55289e-12 4.58002e-19 0.20417 0.0625
0 0.204149 -0.0625 0 0.204193 0.182675 -2.46519e-32 0.142311 0.1875 -2.46519e-32
0.14231 -0.1875 3.44655e-18 0.142409 0.125 1.8947e-18 0.20412 -0.125 8.62579e-19 0.204222
-0.25 0 0 0.25 0 0 -0.25 0 0.01875 0.25
0 0.01875 0.1875 0 0.171657 0.25 -1.85988e-18 0.0805215 -0.25 -7.89071e-19
0.0805852 2.80171e-12 0 0.265981 0.0625 -3.12196e-18 0.265952 -0.0625 0 0.266014
0.1875 0 0.204094 -0.1875 1.57772e-30 0.204241 0.192183 0 0.204092 0.25
0 0.142295 -0.25 0 0.142423 0.125 3.9443e-31 0.265926 -0.125 0
0.266049 -0.3125 1.57772e-30 0 0.3125 7.88861e-31 0 -0.3125 -2.90674e-18 0.01875
0.3125 -1.27488e-19 0.01875 0.3125 0 0.0805151 0.25 0 0.20407 -0.3125
0 0.0805924 -0.25 0 0.204262 0.1875 0 0.26588 -0.1875 5.62479e-19
0.266075 3.20058e-12 0 0.327795 0.199338 -9.86076e-32 0.265874 0.0625 0 0.327757
-0.0625 0 0.327848 0.3125 -2.71896e-18 0.142282 -0.3125 2.78209e-18 0.142437 0.125
6.9163e-19 0.327724 -0.125 2.08789e-18 0.327878 0.25 0 0.265848 -0.25 0
0.266105 0.3125 0 0.204049 -0.3125 0 0.204285 -0.375 0 0
0.375 0 0 -0.375 0 0.01875 0.375 0 0.01875 0.1875
0 0.32767 -0.1875 0 0.327912 0.375 -8.46552e-19 0.0805098 -0.375 -8.58061e-19
0.0806002 0.205871 0 0.327658 3.76968e-12 0 0.389612 0.0625 3.97291e-19 0.389565
-0.0625 2.2957e-18 0.389672 0.375 0 0.14227 -0.375 0 0.142454 0.125
0 0.389523 -0.125 0 0.389709 0.3125 0 0.265819 -0.3125 0
0.266137 0.25 -1.46378e-18 0.327628 -0.25 3.03983e-18 0.32795 0.375 0 0.204032
-0.375 2.41679e-18 0.20431 0.1875 -1.87127e-18 0.389464 -0.1875 3.73964e-19 0.389752 -0.4375
0 0 0.4375 0 0 -0.4375 1.89554e-18 0.01875 0.4375 -2.57557e-18
0.01875 0.213183 0 0.389442 0.4375 1.57772e-30 0.0805056 -0.4375 0 0.0806086
4.53883e-12 -3.03619e-18 0.451433 0.3125 0 0.32759 -0.3125 0 0.327991 0.0625
0 0.451375 -0.0625 1.57772e-30 0.451497 0.375 0 0.265795 -0.375 -1.57772e-30
0.266171 0.4375 3.41059e-18 0.142262 -0.4375 -9.03976e-19 0.142471 0.25 0 0.389411
-0.25 0 0.389799 0.125 -2.36403e-18 0.451324 -0.125 -5.90775e-19 0.451542 0.4375
0 0.204018 -0.4375 0 0.204337 0.1875 0 0.451262 -0.1875 0
0.451594 0.375 1.63705e-18 0.327558 -0.375 3.27259e-18 0.328036 0.3125 0 0.389363
-0.3125 -1.14983e-18 0.38985 -0.5 0 0 0.5 1.57772e-30 0 -0.5
0 0.01875 0.5 1.57772e-30 0.01875 0.222412 0 0.451226 0.5 2.84117e-18
0.0805025 -0.5 2.92717e-18 0.0806173 0.4375 -2.12621e-18 0.265775 -0.4375 -1.47432e-18 0.266207
5.55162e-12 1.57772e-30 0.513258 0.25 0 0.451197 -0.25 0 0.451651 0.0625
0 0.513189 -0.0625 4.3536e-19 0.513324 0.5 1.57772e-30 0.142255 -0.5 0
0.142489 0.125 0 0.513128 -0.125 0 0.513378 0.5 -1.57772e-30 0.204008
-0.5 3.15544e-30 0.204364 0.375 1.57772e-30 0.389324 -0.375 0 0.389905 0.1875
0 0.513077 0.4375 0 0.327533 -0.1875 0 0.51344 -0.4375 0
0.328082 0.3125 0 0.451139 -0.3125 3.15544e-30 0.451713 -0.5625 6.31089e-30 0
0.5625 3.15544e-30 0 -0.5625 -1.00175e-18 0.01875 0.5625 -2.39654e-18 0.01875 0.23435
0 0.513009 0.5 0 0.265761 -0.5 3.15544e-30 0.266245 0.5625 0
0.0805006 -0.5625 -6.31089e-30 0.0806264 0.25 0 0.512987 -0.25 0 0.513508
6.87235e-12 -3.15544e-30 0.5751 0.0625 0 0.575006 -0.0625 0 0.575154 0.5625
-3.18176e-18 0.142251 -0.5625 2.78172e-19 0.142507 0.4375 -3.799e-19 0.389292 -0.4375 4.15711e-19
0.389963 0.375 -3.25704e-18 0.451091 -0.375 -1.7012e-18 0.45178 0.125 3.22891e-18 0.574935
-0.125 2.76461e-18 0.575218 0.5 1.53587e-19 0.327515 -0.5 1.56796e-18 0.328131 0.5625
-3.15544e-30 0.204002 -0.5625 0 0.204393 0.3125 -3.04445e-18 0.512918 -0.3125 -1.22914e-18
0.513582 0.1875 -7.88861e-31 0.574873 -0.1875 3.15544e-30 0.57529 0.5625 0 0.265753
-0.5625 0 0.266284 -0.625 0 0 0.625 0 0 -0.625
0 0.01875 0.625 0 0.01875 0.249434 0 0.574782 0.25 -2.35481e-18
0.574782 -0.25 2.86973e-18 0.57537 0.25 0 0.576361 0.4375 0 0.451052
-0.4375 0 0.451849 0.625 -4.13928e-19 0.0805 -0.625 1.78069e-18 0.0806358 0.5
-3.15544e-30 0.389269 -0.5 0 0.390023 0.375 0 0.512859 -0.375 0
0.51366 8.59817e-12 0 0.636923 0.0625 -4.29693e-19 0.636828 -0.0625 2.53227e-18 0.636986
0.625 0 0.14225 -0.625 0 0.142527 0.125 0 0.636744 -0.125
0 0.63706 0.5625 0 0.327504 -0.5625 0 0.328182 0.3125 7.88861e-31
0.5747 -0.3125 0 0.575456 0.625 -2.48369e-18 0.204 -0.625 2.63567e-18 0.204423
0.1875 -2.99188e-18 0.636672 -0.1875 1.69459e-18 0.637144 0.5 -3.15544e-30 0.451023 -0.5
6.31089e-30 0.451922 0.4375 0 0.512812 -0.4375 0 0.513742 0.625 0
0.26575 -0.625 0 0.266325 0.25 0 0.636581 0.5625 -2.7276e-18 0.389255
-0.25 0 0.637237 -0.5625 -2.95645e-18 0.390085 0.375 -2.32583e-18 0.57463 -0.375
-1.63671e-19 0.575547 -0.6875 0 0 0.6875 0 0 -0.6875 7.54477e-19
0.01875 0.6875 2.80491e-18 0.01875 0.265822 0 0.636557 0.6875 0 0.0804911
-0.6875 2.52435e-29 0.0806455 1.08822e-11 3.25112e-18 0.698748 0.0625 -3.15544e-30 0.698655 -0.0625
0 0.698821 0.6875 0 0.142233 -0.6875 -5.02969e-19 0.142546 0.625 0
0.3275 -0.625 -2.67663e-18 0.32822 0.3125 2.79272e-18 0.636486 0.125 2.61292e-18 0.698557
-0.3125 -2.72054e-18 0.637337 -0.125 2.93961e-18 0.698907 0.5 -3.15544e-30 0.512778 -0.5
0 0.513828 0.6875 0 0.203976 -0.6875 0 0.204444 0.5625 0
0.451006 -0.5625 0 0.451996 0.4375 0 0.574574 -0.4375 0 0.575643
0.1875 0 0.698474 -0.1875 -6.31089e-30 0.699004 0.625 0 0.38925 -0.625
1.26218e-29 0.390123 0.6875 2.67855e-18 0.26572 -0.6875 3.2715e-19 0.266348 0.375 0
0.636404 -0.375 0 0.637442 0.25 -2.90235e-18 0.698407 -0.25 0 0.699111
-0.75 5.04871e-29 0 0.75 0 0 -0.75 5.04871e-29 0.01875 0.75
0 0.01875 0.75 0 0.0804865 -0.75 0 0.0806519 0.285281 3.9443e-31
0.698333 1.39788e-11 -6.31089e-30 0.760575 0.5625 -5.36693e-20 0.512757 0.6875 0 0.327466
0.5 -2.55668e-18 0.574533 -0.6875 0 0.328255 -0.5625 0 0.513884 -0.5
2.53415e-18 0.575741 0.0625 0 0.760507 -0.0625 -1.16387e-18 0.76066 0.75 0
0.142224 -0.75 0 0.142557 0.3125 0 0.698276 -0.3125 0 0.699225
0.125 0 0.760375 0.625 1.75231e-18 0.451 -0.125 -6.31089e-30 0.760759 -0.625
-3.24651e-18 0.45203 0.4375 -1.27166e-18 0.636338 -0.4375 -3.18222e-18 0.637551 0.75 -1.59252e-18
0.203961 -0.75 -3.38897e-18 0.204465 0.1875 -2.65116e-18 0.760279 -0.1875 0 0.76087
0.6875 4.68344e-19 0.389213 -0.6875 1.91147e-18 0.390167 0.375 0 0.698181 -0.375
1.91584e-18 0.699345 0.75 0 0.2657 -0.75 -5.04871e-29 0.266377 0.25 1.57772e-30
0.760201 -0.25 6.31089e-30 0.760991 0.5625 0 0.574508 -0.5625 0 0.57579
0.625 0 0.51275 -0.625 0 0.513942 0.5 0 0.63629 -0.5
0 0.637631 -0.8125 0 0 0.8125 -3.15544e-30 0 -0.8125 -2.65391e-19
0.01875 0.8125 -2.54486e-18 0.01875 0.8125 -3.15544e-30 0.0804832 -0.8125 0 0.080659
0.75 0 0.327439 -0.75 0 0.328293 0.308355 0 0.760081 0.3125
0 0.760072 0.6875 6.31089e-30 0.450962 1.8335e-11 -6.31089e-30 0.822406 -0.3125 -2.82488e-18
0.761121 -0.6875 0 0.452083 0.4375 0 0.698104 0.0625 6.31089e-30 0.822327
0.8125 2.65865e-18 0.142217 -0.0625 -6.31089e-30 0.822503 -0.8125 -1.243e-18 0.142571 -0.4375
0 0.699469 0.3125 -9.86076e-32 0.768058 0.125 -2.30523e-18 0.822198 -0.125 2.23709e-18
0.822616 0.8125 0 0.20395 -0.8125 1.00974e-28 0.204487 0.1875 3.15544e-30 0.822087
-0.1875 0 0.822743 0.75 0 0.389179 -0.75 0 0.390213 0.375
-1.57772e-30 0.759961 -0.375 0 0.761257 0.625 -3.56137e-19 0.5745 0.5625 5.79545e-20
0.63626 -0.625 3.27226e-18 0.575858 -0.5625 2.77466e-18 0.637702 0.8125 0 0.265684
-0.8125 0 0.266417 0.6875 0 0.512713 -0.6875 8.28782e-19 0.514003 0.5
0 0.698047 0.25 0 0.821997 -0.5 6.31089e-30 0.699537 -0.25 -1.344e-19
0.822881 -0.875 0 0 0.875 0 0 0.75 -2.10549e-18 0.45092
-0.875 0 0.01875 0.875 0 0.01875 -0.75 1.56797e-20 0.452151 0.8125
0 0.327419 -0.8125 -1.00974e-28 0.32834 0.4375 0 0.759871 -0.4375 -6.31089e-30
0.761365 0.875 5.04368e-19 0.0804812 -0.875 -2.51369e-18 0.080669 0.3125 0 0.821875
-0.3125 0 0.823027 2.47722e-11 -1.26218e-29 0.88424 0.0625 -1.66421e-18 0.884149 0.875
0 0.142212 0.33235 7.88861e-31 0.821834 -0.875 0 0.142591 -0.0625 2.92278e-18
0.884351 0.625 6.31089e-30 0.63625 0.125 0 0.884028 -0.625 0 0.637779
-0.125 1.26218e-29 0.88448 0.6875 0 0.574467 0.5625 6.31089e-30 0.698012 -0.6875
2.52435e-29 0.575948 -0.5625 0 0.699618 0.875 2.58384e-20 0.203944 -0.875 9.09699e-19
0.204515 0.8125 0 0.389154 -0.8125 3.37331e-18 0.390268 0.375 1.97423e-18 0.821747
0.1875 -1.85962e-18 0.8839 -0.1875 2.49188e-18 0.884624 -0.375 -1.97905e-18 0.82318 0.75
6.31089e-30 0.512662 -0.75 0 0.514078 0.5 0 0.759805 -0.5 0
0.761448 0.875 -6.31089e-30 0.265675 -0.875 0 0.266443 0.25 0 0.883795
-0.25 0 0.88478 0.8125 0 0.450889 -0.8125 0 0.452199 0.4375
3.15544e-30 0.821642 -0.4375 1.26218e-29 0.823271 0.875 -9.20802e-19 0.327407 -0.875 9.03125e-19
0.328375 0.6875 0 0.636224 0.625 -2.7446e-18 0.698 0.3125 -2.49404e-18 0.883686
-0.9375 4.03897e-28 0 0.9375 0 0 -0.9375 -1.92536e-18 0.01875 0.9375
4.53743e-19 0.01875 -0.6875 -3.21362e-18 0.637874 -0.625 1.90886e-19 0.699706 -0.3125 8.78757e-19
0.884945 0.9375 0 0.0804805 -0.9375 4.03897e-28 0.0806755 0.75 -1.26218e-29 0.574406
0.5625 1.00038e-18 0.759764 -0.75 0 0.576008 3.4849e-11 2.81091e-18 0.946078 -0.5625
-2.18181e-18 0.761541 0.0625 0 0.945974 0.9375 1.49422e-18 0.142211 -0.0625 -1.26218e-29
0.946205 -0.9375 1.98124e-18 0.142604 0.358506 3.9443e-31 0.883577 0.125 -1.04263e-18 0.945865
-0.125 2.57769e-18 0.946353 0.875 0 0.389138 -0.875 0 0.39031 0.9375
0 0.203942 -0.9375 4.03897e-28 0.204536 0.375 7.88861e-31 0.883538 0.8125 -2.70638e-18
[...]
POINT_DATA 9400
FIELD attributes 1
p 1 9400 float
1.93174 1.9311 2.09542 1.76329 2.09481 1.76261 1.93322 1.76457 2.0971 2.25417 1.59018
2.25361 1.58947 1.94173 1.59125 2.25604 1.50436 1.77272 2.10593 1.50363 2.40785
1.41255 1.46311 2.40732 1.41181 1.59899 2.26516 1.4134 2.40985 1.95481 1.78527
2.11949 1.43446 1.42069 2.41921 1.61094 2.27914 2.55646 1.23065 2.55595 1.22986
1.42604 1.23124 2.55857 1.97279 1.80253 2.1381 1.43194 2.43355 1.4182 1.23804
2.56811 1.62737 2.2983 2.69999 1.04469 2.69951 1.04387 1.04501 1.24851 2.70222
2.58275 1.44742 2.45318 1.99609 1.41247 1.8249 2.16218 1.05124 2.71192 1.64869
2.32303 1.26292 2.60278 1.06085 2.7268 2.8383 0.854727 2.83785 0.853855 1.46753
2.47846 0.854725 2.84061 1.4129 2.02601 1.85373 2.19302 0.860333 2.8504 1.67624
2.35464 1.07406 2.74714 1.28167 2.62849 0.868983 2.86548 1.49363 2.5107 2.97132
0.660946 2.97088 0.660028 1.41657 0.660611 2.97367 2.06163 1.0913 2.77318 1.88808
2.22972 0.880901 2.88608 0.665539 2.98349 1.30612 2.66124 1.70911 2.39223 0.673147
2.99873 1.52478 2.54903 0.896487 2.91236 1.11392 2.80631 3.09917 0.463751 3.09877
0.462784 1.41896 0.463057 3.10161 0.683651 3.01955 2.10127 1.33533 2.70015 1.92628
2.27058 0.467255 3.11146 1.74561 2.43413 0.47374 3.12679 0.917096 2.94573 1.55933
0.697449 2.59176 3.04598 1.14098 2.84565 3.22215 0.263377 3.2218 0.262361 1.41566
0.482722 3.14775 0.262308 3.22468 1.36767 2.74353 2.14709 1.97045 2.31777 0.265722
3.23451 0.715888 3.07951 0.941798 2.9854 1.78785 2.48246 0.49459 3.17427 0.271006
3.24995 1.17085 2.88952 1.59937 2.641 0.278362 3.27104 3.34044 0.0599905 3.34017
0.0589243 1.40697 1.40521 2.79347 1.40635 0.73802 3.11937 0.0585272 3.34304 0.510683
3.20785 0.968958 3.0296 2.20101 2.02257 2.3732 0.0611134 3.35276 1.83783 2.53911
0.288163 3.29748 1.20559 2.93996 0.0651235 3.36837 1.6469 2.69861 0.530038 3.24778
0.762221 3.16375 0.0707579 3.38963 1.44995 0.301738 2.85181 3.33095 1.00061 3.08033
3.45369 -0.146063 3.45354 -0.147182 1.39862 -0.147939 3.45645 2.26267 2.0823 2.43646
-0.146219 3.46597 0.0783725 3.4158 1.24719 1.89526 2.99878 2.60366 0.551046 3.29219
-0.143547 3.48176 0.318116 3.37089 0.790494 3.21457 1.70163 2.76416 0.0892782 3.44897
-0.139722 3.50327 1.03873 3.13941 1.50163 2.91807 3.56076 -0.354304 3.56083 -0.355474
-0.3566 3.564 1.38522 2.33153 0.335695 -0.134405 0.575661 3.52913 3.41525 3.34292
2.14912 2.50699 -0.355779 3.5734 1.29541 3.06551 1.9596 0.102485 2.67553 3.48895
0.824806 3.27369 -0.354498 3.58941 1.76304 2.83704 -0.12631 3.56195 1.08309 3.20636
-0.352562 3.61129 1.55971 2.99165 0.356375 3.46569 0.116406 3.53327 0.605829 3.40188
3.66133 -0.564225 3.66175 -0.565445 -0.56695 3.66512 -0.349649 3.63683 1.36364 1.34972
-0.116456 2.40841 3.13951 3.60198 0.864919 2.22381 -0.567057 2.58564 3.67439 3.34064
1.35761 2.03163 2.75553 -0.567215 3.69158 1.83191 2.91805 -0.344502 3.66926 1.13314
3.28051 0.132892 0.382075 3.58316 3.52427 -0.567235 3.71442 -0.106409 3.64618 0.641319
1.62493 3.46863 3.07333 3.75914 -0.775454 -0.338162 3.75983 -0.776721 3.70945 -0.566823
3.73849 0.910287 3.41468 -0.778615 3.7618 1.41082 3.22154 2.49391 2.30694 -0.779686
1.34056 3.76988 2.67301 0.153826 2.11188 3.64109 2.84435 -0.0943589 0.412575 3.69532
3.59066 -0.781336 3.79109 -0.564746 3.76956 1.18959 1.90873 3.0079 3.36257 -0.332173
3.75347 0.681576 3.54232 -0.783379 3.81649 1.69777 3.16385 -0.562055 3.81089 0.961575
3.49648 -0.785547 3.83583 -0.0784771 0.178978 1.47913 3.8609 -0.987659 3.86109 -0.988981
3.75243 3.707 3.31236 -0.991285 3.8587 -0.324787 0.447303 3.80161 2.58703 3.66384
2.39756 -0.993351 2.76811 3.86409 1.31252 2.19944 2.94094 -0.786638 3.86237 -0.996539
3.89108 1.2528 -0.560282 3.45335 3.85562 0.727217 3.62362 1.9926 3.10554 -1.00066
3.91977 1.77731 3.26211 -0.05901 3.81774 -0.314233 0.207756 -0.787724 3.85785 3.90771
3.77952 1.01909 3.58694 1.2899 -1.00547 3.93287 -0.55776 0.48681 1.55375 3.90174
3.41083 3.74436 3.96447 -1.20031 3.96172 -1.20168 -1.20439 3.94196 2.68669 2.49463
2.86977 -1.20746 3.96372 -0.790326 3.95642 0.778481 -1.00981 2.29333 3.95322 3.04406
3.7135 1.32185 3.55169 1.2858 -1.21221 3.97437 -0.300773 -0.0365721 2.08263 3.20963
3.92262 3.88943 -0.552774 0.240651 3.95619 3.85898 -1.21845 4.01532 1.86276 3.3667
-1.01479 4.0041 1.08191 3.68485 -0.792847 0.531272 3.99776 3.83337 -1.22595 4.01511
1.63394 3.51549 -1.41295 -1.41437 -1.41749 -0.285035 -1.0219 3.99333 0.834437 4.05895
2.79618 -0.545599 3.81068 -0.0107364 2.60145 2.98128 -1.42157 4.02126 3.96761 -1.23363
4.05362 1.39609 3.65604 2.39682 3.15702 -0.793636 -1.42788 0.277765 4.04661 3.94683
2.18209 1.27343 3.32347 -1.43624 -1.24259 4.08759 1.14944 1.95739 3.48089 -1.02961
0.579745 3.7886 4.09395 3.92956 -1.4465 -0.536894 -0.266686 1.72294 4.09164 4.07002
3.62954 -0.79299 0.01851 4.11408 4.05418 -1.25431 0.894532 4.15406 4.15808 -1.62519
-1.62665 4.14972 3.9135 -1.63016 -1.45757 2.91917 1.4787 -1.03635 0.318128 2.72173
3.1063 -1.63525 4.13362 3.76962 4.04189 4.15477 2.51364 3.28341 -1.64313 2.29473
3.45061 1.2827 -1.26733 0.631689 4.17516 -1.47058 1.22481 -0.526424 4.03119 -1.65365
3.90134 4.16604 4.18666 2.06493 -0.245805 -0.791611 3.60817 4.18681 4.15529 0.0501613
-1.04245 4.2037 4.148 -1.66667 1.82444 3.75647 -1.48698 0.961794 4.02506 0.361214
-1.28018 4.2287 4.14218 -1.83653 -1.83802 -1.84193 -1.68117 1.57334 3.89581 4.24835
3.05587 2.85579 3.2449 -1.84803 2.64425 -0.514362 -0.789351 3.4232 4.25686 4.24926
-1.8575 -0.223421 -1.04865 0.690023 2.42106 -1.50542 4.28056 4.24782 3.59087 4.14122
1.32599 -1.69826 1.31162 4.0264 -1.87019 2.18599 0.0837092 -1.2932 3.74824 4.27965
4.24679 -1.88599 1.93916 3.89588 1.03976 -1.71939 0.409834 -1.52448 4.14861 4.3267
4.25035 -0.786473 4.33513 -0.50175 -1.05487 4.34512 4.34111 -1.9039 1.37579 4.32731
-2.0464 -2.04792 1.68072 4.31843 4.03414 -2.05221 -0.200041 3.20604 -1.30716 3.00346
3.39677 4.3664 4.34493 -2.05932 4.29451 2.7885 3.57596 0.758212 -1.74329 4.26294
-2.07037 2.56098 1.41061 3.74373 -1.9251 1.40655 0.121858 -1.54453 4.16322 4.35283
-2.08522 2.32057 3.90052 4.35104 -0.784068 -1.06149 4.41631 4.42856 0.467324 -2.10379
-1.76863 1.12923 2.06717 -1.95098 -0.489121 -1.3221 4.36989 4.04712 4.28353 4.41721
4.43714 4.41293 -0.173081 -1.5664 4.44866 -2.12514 1.80099 4.18385 -2.25426 -2.25581
4.38649 -2.26048 3.3709 0.837089 3.16592 3.56311 -1.98034 -2.26858 4.39571 2.94761
0.167755 3.74284 -1.79579 4.46989 -2.28119 1.52216 1.51569 -2.15041 2.71571 4.31092
-1.06968 3.91031 4.51329 -0.782708 -1.33849 4.50332 4.52635 -2.29817 2.46999 4.06616
-0.474041 -1.59022 4.5378 0.534605 -2.01195 4.5003 1.23089 -2.181 -2.31949 4.42887
2.2101 4.21133 -0.139606 4.48458 -1.82566 4.56319 4.52093 1.93624 -2.34422 4.34606
0.927694 -2.45981 -2.46139 -1.08003 -2.21579 -1.35755 0.22245 4.53844 -2.04625 -2.46644
4.58616 4.61537 4.59773 3.55172 3.34453 -0.780109 3.7451 -1.61657 -2.47554 4.6214
3.1231 3.92496 1.64878 1.64266 -2.37352 4.47061 -2.48968 2.88718 -0.453796 4.09165
-1.85847 4.64902 -2.50875 0.613072 2.63671 -2.25363 4.24619 4.64022 1.3475 -0.0984362
-2.40874 4.54324 -2.08417 4.58577 4.68821 2.3708 -2.53275 4.38942 -1.37994 -1.0904
4.69667 -1.64671 4.70256 2.08943 -2.56079 -0.773799 0.287652 -1.89489 4.52159 1.03278
-2.29502 4.72553 -2.44888 4.73459 4.6922 4.67069 -2.66257 -2.66417 -2.66958 3.7495
3.54083 -0.427085 3.94345 -2.126 -2.67964 1.79302 4.77158 3.31711 1.7813 -2.59403
4.12291 4.6432 -2.69527 3.07798 4.28832 0.705261 -2.49287 4.79052 -0.0476298 2.82319
-2.71637 -2.3409 -1.40371 -1.68137 4.441 4.82165 1.48112 4.76952 -2.63378 -1.09857
4.75505 -1.93624 4.66992 4.79519 2.55146 -2.74298 4.58167 -0.762418 -2.17251 4.84764
0.365488 -2.54123 1.15371 2.262 4.88118 -2.77423 -2.67915 4.7107 4.85784 -0.391808
-2.39168 4.9019 4.59173 -2.86194 -2.86357 4.58537 -2.86932 3.96656 3.75765 1.95542
4.15969 1.92704 -2.81129 -1.71883 -2.88029 3.53247 4.8288 -1.42684 4.33759 -1.98333
4.87167 0.811644 0.81168 -2.89736 3.29036 0.014363 -2.72916 4.50107 4.84142 4.95218
-1.1032 -2.59495 -2.2251 4.96428 4.91828 3.03081 -2.92043 1.63171 1.63173 4.65118
-2.85546 4.93678 -0.743785 4.62312 -2.4482 4.97773 2.75268 -2.94954 4.78854 4.78872
0.455665 0.45571 -2.78436 5.03866 1.29014 1.29015 1.29003 -0.347038 2.45429 -2.9059
-2.65454 5.03536 -2.98391 5.03996 4.91376 -1.75726 -2.03464 -1.44803 -2.28462 4.97809
-3.05757 -3.05921 2.13641 -3.06528 -1.10212 4.20632 3.99787 -3.02466 -2.51192 4.39723
5.02768 0.0866013 0.0866505 0.931762 -3.07714 5.0512 3.77105 -2.84577 4.57189 -2.96176
5.11752 5.12531 3.5253 -3.0956 4.0431 4.73208 -0.717576 -2.72092 1.7998 3.26032
5.10961 -3.12054 -3.07308 3.83808 5.13108 4.87852 -2.08854 0.557732 2.97538 4.73373
-3.15206 -1.79544 -2.34974 5.01168 -3.0236 5.20726 -0.294268 -0.294222 5.02081 -2.91395
1.44331 5.18817 -1.46523 -2.58374 -3.12842 5.22477 2.66814 -3.18942 5.11801 5.13236
4.96949 -1.09556 -1.09555 -2.79557 5.17544 0.168811 2.33849 -3.24914 -3.25079 1.06732
-3.09246 -3.23371 5.24131 -3.25719 5.28143 4.41473 4.47021 4.26229 4.65849 -3.18994
5.30963 4.48648 -3.26989 4.0337 4.03336 4.03399 -0.685767 -0.685758 -0.686073 4.82893
-2.98995 5.25002 3.78412 -3.28965 -2.144 4.98408 -2.41915 1.98792 4.72102 -1.8315
-2.66256 -3.2862 3.51355 5.33933 -3.31638 5.12506 0.673506 -1.47916 -1.47917 -0.233621
-2.87947 -3.25818 5.38645 3.22171 -3.16899 5.34739 -3.3502 5.2528 5.22831 1.61598
-3.34627 5.42729 -1.08596 -3.07527 2.90643 5.30629 -3.39039 5.36797 0.2628 -3.33421
-2.492 5.45527 1.22117 1.22119 2.56495 1.22118 -0.648315 -2.19934 -2.74736 -3.43806
5.47101 -3.41319 -3.25428 -3.43614 5.50615 -3.4378 5.40658 -3.44448 4.75825 2.3996
4.55168 4.54124 -1.86663 -1.86665 4.94345 5.22585 -2.97173 4.32256 5.05655 -3.45797
4.91778 5.12042 5.10968 4.07024 -3.47898 2.19966 2.19967 2.19967 5.13633 5.25885
-1.49265 -3.49445 -3.17091 5.56273 3.79417 -0.163472 0.805818 0.805838 0.805839 -3.5074
5.3926 5.36787 -3.41875 -3.48755 5.51623 5.57685 3.49546 -1.07325 -3.54338 5.51316
1.81066 1.81067 1.81067 4.69963 -3.34989 5.4637 -3.559 5.64407 5.37069 -2.56678
-2.83753 3.17164 -2.25608 -2.25611 -3.58625 -3.07165 5.62132 0.37106 0.371082 0.371084
-0.603786 -3.57043 5.63941 -1.90394 -3.51297 1.39675 1.39674 1.39675 -3.27622 5.57322
2.81991 -3.63107 5.71612 -3.63714 5.71728 4.80739 -3.61803 -3.6197 4.80334 -3.62664
-1.50582 5.07251 4.91263 4.8682 5.25331 -3.45685 4.63922 -3.64085 5.41432 5.51409
2.4399 4.38599 -0.0817915 -0.0817723 -0.0817704 -3.663 5.55688 -3.69724 5.80165 0.958388
-3.66263 5.69374 5.62053 4.1069 -3.71124 5.7798 -1.05627 -3.693 -2.93168 5.68272
-2.64528 -2.64532 -3.61842 -3.17884 5.63119 4.83312 3.80221 -2.31765 2.03247 5.7254
-3.39075 5.32913 -3.73101 5.79448 -3.76602 5.87555 5.47431 -1.9438 0.497101 3.46935
-0.550942 -0.550937 -0.550951 -0.550935 -3.57469 5.89355 -3.77641 -3.80064 5.83524 -3.76534
5.74252 1.5969 -1.51792 -3.84292 5.94001 3.10584 -3.73618 5.9807 -3.83031 5.68047
-3.79432 -3.79598 5.20939 5.20881 -3.80315 -3.0318 -3.03185 5.41241 -3.29207 5.58856
0.0146924 4.98316 -3.81802 -2.73125 5.98479 5.74424 -3.51446 2.71085 -3.90009 5.17224
5.88185 1.13323 -1.03413 4.7316 6.05661 -3.89387 -3.84121 5.87898 -3.88011 -3.92859
-2.38478 5.99586 5.78951 -3.70324 4.45304 -3.87265 5.99624 4.92805 2.28415 -1.98601
4.1439 -3.86599 6.09822 6.12198 -3.96661 -3.91256 6.12218 -0.486919 0.6428 -4.01081
5.91997 -4.02413 3.80231 6.04329 6.18645 -3.96033 -1.52872 1.82528 -3.4134 -3.41394
-4.0081 -3.14199 -3.64626 -4.04805 6.17775 5.82513 3.42697 6.24689 -2.82588 -3.84278
6.26286 -4.01703 5.54499 0.127587 5.77386 -3.96477 5.77561 -3.96643 -2.45783 5.94327
-1.0053 5.94582 5.58326 5.94642 -4.13036 -3.97376 6.0825 -4.00784 5.36354 -4.13435
3.01663 1.33414 -3.98919 5.9531 6.09786 5.75043 6.32851 -4.08379 -4.13885 6.22474
5.11495 -4.01332 6.22449 -2.03107 4.83613 -4.14922 -4.0461 6.33338 2.57002 -0.410324
4.52387 6.38392 -4.1602 -3.54724 -3.78814 -3.78879 6.42464 -4.08775 0.811793 -4.24856
6.11482 -3.26389 -3.99243 -4.24007 -1.53707 6.2633 -4.27195 4.17489 -2.93005 6.50133
-4.1377 5.98906 -4.16235 2.08643 6.42967 -4.24585 5.09926 3.78811 -2.53801 6.55657
6.56536 -4.30352 6.56635 -4.19699 0.260216 -0.968222 -4.35261 6.29469 -4.38029 6.14365
-4.12923 6.1789 -4.1309 1.56565 6.33822 5.9949 -4.13836 3.36233 6.47194 -2.07845
6.47431 5.78229 6.46637 -4.34137 -4.15421 6.61861 -4.2667 -4.42358 -3.94475 6.58658
6.59038 5.53825 6.59098 -3.69572 -4.17919 -4.15396 -3.39891 5.26061 -4.3289 -4.21319
6.69183 -0.318349 2.89544 6.69378 -4.47773 6.3217 6.6621 1.00843 -4.34649 -1.54228
-3.04568 4.9467 5.81277 6.77224 -4.52675 -4.25642 -4.47195 6.49513 -4.44783 6.16813
5.49249 4.59239 2.38595 6.83823 -2.62551 -4.30835 -4.58936 6.69623 -4.43597 6.04667
-0.920873 0.416615 4.19497 -4.61697 6.88907 6.34677 -4.37002 6.51712 -4.56617 -4.11876
-4.33174 -4.33217 -4.33228 -3.86081 -2.12807 -4.50897 1.83332 -4.68804 4.99488 -4.28722
6.61921 -4.28897 6.72167 3.7538 -4.53581 -3.54971 6.76581 6.44574 4.99056 -4.29647
-4.65427 6.92794 6.88818 6.24204 -4.44243 -4.31257 6.98947 6.00476 -4.3383 -0.207465
-3.17377 -1.54303 7.06806 -4.7706 7.07152 5.73097 -4.69762 6.53416 3.26649 -4.37341
1.23804 -4.7715 6.95452 6.9571 -4.52526 6.95982 6.36309 6.73972 -4.64707 7.13282
7.1381 5.41751 7.13851 4.9852 -4.41807 -2.72107 -4.86432 -4.53028 5.06059 2.73033
-4.31266 -4.70732 5.32519 -4.70915 7.19399 -4.47181 6.97766 -4.61822 -0.860441 -4.04585
-4.85159 0.601691 -4.84366 6.54676 4.65463 -2.17969 6.75102 -4.77065 -3.71812 7.23189
-4.53562 -4.94155 -4.96747 2.14386 6.99095 -4.72198 6.07941 4.19846 -4.43793 7.09769
-4.43975 -3.31598 7.10104 7.22945 6.93784 -4.44729 7.2574 -4.61043 -5.05716 7.33624
6.74619 -4.46367 -0.0733589 -1.53753 7.42073 6.51879 6.75573 -4.9078 -4.49017 -5.00547
6.55127 1.50724 3.69063 5.0989 7.48556 6.25206 -4.75122 -4.92771 -4.52629 -2.82558
7.27037 6.99728 -4.696 -4.83755 -4.5305 -5.06845 -5.06926 -5.12735 7.53409 5.9421
6.37239 -4.57226 -4.25348 -5.18065 3.12725 -0.783532 7.56344 7.56765 5.58477 7.27535
-4.79209 -4.62764 -5.05995 -3.90669 0.821804 -2.2328 -5.19864 6.75544 -5.2672 6.99745
-5.18338 -4.96583 7.27494 7.5836 5.17398 7.58954 7.58967 -4.69336 2.50531 -3.47432
-5.33052 7.27448 -4.89934 4.70539 -5.17347 -4.99962 -5.37625 -5.3091 -1.52351 0.0896923
7.60339 -4.58071 7.61704 -4.58247 -4.7703 7.73063 7.47439 -4.59023 -5.22825 -4.77557
6.99316 7.8186 7.29852 -5.10806 -4.60734 -5.41431 6.75225 -2.93988 7.88392 7.08487
-4.6347 1.82421 -5.37769 4.17745 5.89027 -4.48701 7.26769 -5.01872 -5.49483 7.92961
6.82918 7.60107 -4.8583 -4.67178 7.40307 7.95836 6.52682 -4.11859 -4.71894 -0.685444
-5.55224 3.58638 -2.28651 5.22462 -5.26562 6.98562 7.59106 1.08482 7.9722 6.17238
-5.41311 -4.95716 6.38263 -4.77578 -5.63368 7.25607 -5.15115 -5.44974 -3.65113 -5.57733
-5.58994 -5.27937 7.97387 5.76036 -5.67313 5.59486 -4.84318 2.92772 7.57369 -5.05186
-5.06748 -5.74355 -1.49764 0.288888 5.28345 7.95897 7.9638 -5.43963 6.97478 7.24327
-3.06476 -4.92202 -5.29787 7.56202 -4.75083 -4.71581 8.17993 -4.71746 8.27147 8.05864
-4.72557 -5.79282 -5.61488 8.33704 7.90296 6.74015 -4.74359 2.19928 8.37987 7.70772
7.55135 7.93708 4.73694 -4.77175 -5.1902 7.94518 7.94482 -4.35769 -5.87715 -5.01215
8.40324 7.46794 -4.80969 -5.82184 7.58717 -0.56003 -2.33912 -5.87853 8.41009 7.17823
-5.76079 -5.96124 -4.85792 -5.46017 -5.63053 7.22716 4.11819 1.40091 -5.59503 7.92307
-6.01832 -5.11341 -3.84917 7.52582 8.40256 6.83204 -5.32627 -5.83505 -4.91604 -5.3647
-6.05486 8.38237 6.42254 3.42225 -4.98491 -1.4554 7.88954 -5.22639 -5.05043 -5.63909
0.533762 -3.2007 -6.07373 7.19994 7.49919 -5.83879 -5.47687 8.35117 5.94339 -6.11145
-5.06538 -4.84365 8.78926 -4.84521 8.8544 8.69415 -4.8536 2.64447 -4.62886 8.89361
8.56384 -6.21719 -6.2841 -4.87227 7.84992 -6.07559 -5.35203 5.3826 -6.11172 5.43968
8.91031 8.39248 -6.32358 8.3125 -4.90102 6.71816 -5.15732 -2.38837 8.908 8.17449
-5.95258 -0.398889 -5.99949 -6.34331 -4.93971 -6.03377 -5.8352 -5.98476 -5.64324 7.46747
-4.0714 8.88993 7.90358 1.78247 4.73657 8.26021 -6.15946 -4.98886 7.81348 -5.721
-6.06575 8.26856 8.26729 -6.34732 7.80819 -5.26062 -5.49124 -5.97731 7.82565 8.85822
7.57194 -5.04805 -5.95209 -5.39267 -5.95233 -6.33712 -6.33738 -6.33917 -1.3903 4.00315
8.81455 7.1711 -3.34809 -5.11815 8.21917 -5.82642 7.43097 -5.37589 0.836391 -6.04902
-6.64625 7.13735 -6.59869 -6.66468 7.76418 -5.64519 -6.50916 -4.93777 8.76105 6.69395
-6.66292 -6.31346 -5.19994 -5.97856 3.17467 -6.36019 -4.96407 9.44751 -4.96555 -6.59153
9.48133 9.38416 -4.97409 -6.6473 8.16211 -5.9687 -5.50403 9.48988 9.2852 -4.99314
6.37427 6.12696 -2.43051 8.70039 9.4764 9.14401 -0.1911 -5.02229 -5.29335 -6.027
5.92235 -6.12881 -4.32135 7.71403 -5.81506 9.44465 8.95477 -6.62065 -5.06157 -6.28177
2.24511 9.39837 8.71032 5.46024 -6.32354 8.10429 8.63421 -5.11143 -5.64592 -5.39833
-5.78575 -6.58295 -7.05327 -7.04621 9.33963 8.40109 -5.17148 -7.03016 -7.01906 -1.29346
-3.50671 -5.99779 8.54874 -5.99633 4.69015 -6.00188 7.66167 -6.24556 -6.96221 8.56183
-6.97867 9.26997 8.01694 1.2124 8.05097 -5.51544 -5.24254 -5.29133 8.04512 -5.80262
-6.53535 -6.82825 8.06947 -6.93019 7.07273 9.19165 7.54865 8.46281 -5.32536 3.80911
8.48583 8.4823 -2.45982 -6.60015 -5.64556 -5.07684 10.1572 -5.07826 10.154 10.1317
-5.08685 -6.87489 0.0777831 10.1273 10.0713 -4.60287 -6.20623 -5.10614 9.10721 6.98451
5.65435 -6.48323 10.0791 9.96738 7.98203 -5.41991 -5.97531 -6.78148 -5.9801 -5.13558
-5.98018 -7.47368 -7.51239 -7.41609 10.0139 9.81563 -7.48495 -5.17529 2.80899 -6.24013
-7.52101 -5.19352 -7.34671 -5.18067 -5.21765 -6.81142 8.4126 6.30666 -5.26489 -5.78951
-5.15521 9.01791 9.93575 9.60666 -5.22567 -5.32226 -5.52617 -5.14112 -7.48228 -7.27083
-5.38955 -3.67524 -1.15281 -5.91583 9.84713 9.33019 -5.87278 -5.46584 -5.13761 -5.28635
-6.42867 7.55935 7.92511 -6.16496 -5.69802 -5.54995 5.50403 -7.36952 1.68295 8.92376
-5.62507 -5.82884 -7.19225 -6.74178 -5.64069 -5.14253 -5.1439 9.74858 8.97274 -5.73441
-5.64468 8.33902 -5.94834 -5.35814 -7.14815 9.64274 8.52557 -7.11065 4.57002 -5.4417
-2.46793 -7.95412 -7.85917 8.82659 -4.92005 -8.03285 -7.75551 -5.7763 -6.37213 0.428422
8.27365 -6.67025 -5.18175 10.9195 -8.04927 -5.18311 10.8717 10.9375 -5.19175 8.26206
-8.08299 -6.12316 -7.64801 9.53217 10.8055 10.923 7.97426 -5.2112 -6.76912 -5.53707
10.7179 10.8633 -5.24081 -7.02323 8.70795 8.30274 -8.08311 3.49707 10.6158 10.7606
-7.54032 8.73074 -5.2808 8.72386 -5.92181 9.41859 7.29758 10.5005 10.5962 -3.85068
-7.92933 -5.64427 -5.33151 -0.949976 -8.00007 -6.59737 -6.16811 -7.4349 8.17784 -6.31487
10.3794 10.3637 -6.9325 -5.39263 7.46565 2.27233 6.47316 -8.15743 9.30157 8.63922
-8.3549 -6.08224 -5.76383 -8.49624 -8.20975 10.2491 10.0437 -7.7903 -5.46489 -7.32825
-8.62618 -8.06548 -8.45013 -8.69571 -2.44076 -5.27722 -8.73045 10.1136 9.63334 5.49242
-7.92451 -8.65349 9.18244 -6.52406 -5.54894 6.32689 -6.84173 0.885345 -5.89654 -7.38945
8.54454 -6.25863 -8.7821 -7.21745 5.25714 -5.27857 11.7316 -5.27987 -7.78894 11.5176
11.6736 -5.28851 9.97352 9.10625 5.2541 11.5221 11.8369 -5.30802 -5.64483 11.2919
11.6849 4.34679 -5.3377 6.93346 9.06382 -8.74057 11.2481 11.7869 -6.04318 -4.02557
-5.37784 -7.65736 9.83419 8.44137 -0.662035 -6.71456 8.00881 -6.75132 8.44365 -8.91139
-8.71549 -5.75264 11.0014 11.5227 5.93968 8.45684 -7.10659 -5.42872 -9.11096 -6.45182
-8.52722 8.91299 8.00252 -9.30684 10.935 11.5002 -8.34761 3.01986 -8.54941 -5.49006
8.94775 -7.52602 9.69224 7.61023 7.61056 7.61026 8.9366 -6.20473 -5.87288 -9.4816
10.6933 -8.17626 11.0556 -5.56258 -5.67615 -2.36072 -6.99768 -8.85132 -6.66243 6.6007
-9.60258 -8.12315 10.6034 10.874 9.54959 -8.01427 1.48752 -5.64684 -7.3938 -6.00628
8.83352 -6.38216 10.3612 -5.36728 10.208 -5.36853 -9.27998 -9.61936 -5.37713 -9.53857
-9.03837 -5.74297 -8.84014 -7.85852 -5.39663 5.39199 -9.81207 -8.81326 -4.19076 9.40635
5.34492 -5.42629 -7.35079 -6.1536 -6.89109 -0.249022 -10.0927 -7.26441 -5.46643 -8.60216
10.2644 9.74151 7.84865 8.72042 8.7196 -6.57628 -5.85106 -9.45623 -5.5173 -7.70483
-10.3606 3.96118 -8.40341 8.92613 9.26753 -5.57868 -6.31578 10.0354 8.73025 8.80201
-5.97161 -6.11951 -10.5763 -2.19361 -8.21759 -7.13876 -5.65122 -8.99676 9.09178 -10.4449