# vtk DataFile Version 2.0
sampleSurface
ASCII
DATASET POLYDATA
POINTS 9400 float
2.60369e-12 7.88861e-31 0 2.60369e-12 7.88861e-31 0.01875 -0.0625 0 0 0.0625 0
0 -0.0625 2.04574e-18 0.01875 0.0625 2.27264e-18 0.01875 2.45838e-12 -7.88861e-31 0.0805546
0.0625 0 0.080548 -0.0625 0 0.0805619 -0.125 0 0 0.125
0 0 -0.125 0 0.01875 0.125 0 0.01875 2.44092e-12 0
0.142361 0.125 -2.36236e-18 0.080537 -0.125 -1.99734e-18 0.0805727 0.155198 9.86076e-32 0
0.0625 2.25713e-18 0.142348 -0.0625 6.58074e-19 0.142376 0.155198 9.86076e-32 0.01875 -0.1875
0 0 0.1875 -1.97215e-31 0 0.17003 9.86076e-32 0.0805311 -0.1875 6.18262e-19
0.01875 0.1875 1.13376e-18 0.01875 0.125 0 0.142327 -0.125 -1.57772e-30 0.142397
0.1875 0 0.0805288 -0.1875 1.57772e-30 0.0805786 2.55289e-12 4.58002e-19 0.20417 0.0625
0 0.204149 -0.0625 0 0.204193 0.182675 -2.46519e-32 0.142311 0.1875 -2.46519e-32
0.14231 -0.1875 3.44655e-18 0.142409 0.125 1.8947e-18 0.20412 -0.125 8.62579e-19 0.204222
-0.25 0 0 0.25 0 0 -0.25 0 0.01875 0.25
0 0.01875 0.1875 0 0.171657 0.25 -1.85988e-18 0.0805215 -0.25 -7.89071e-19
0.0805852 2.80171e-12 0 0.265981 0.0625 -3.12196e-18 0.265952 -0.0625 0 0.266014
0.1875 0 0.204094 -0.1875 1.57772e-30 0.204241 0.192183 0 0.204092 0.25
0 0.142295 -0.25 0 0.142423 0.125 3.9443e-31 0.265926 -0.125 0
0.266049 -0.3125 1.57772e-30 0 0.3125 7.88861e-31 0 -0.3125 -2.90674e-18 0.01875
0.3125 -1.27488e-19 0.01875 0.3125 0 0.0805151 0.25 0 0.20407 -0.3125
0 0.0805924 -0.25 0 0.204262 0.1875 0 0.26588 -0.1875 5.62479e-19
0.266075 3.20058e-12 0 0.327795 0.199338 -9.86076e-32 0.265874 0.0625 0 0.327757
-0.0625 0 0.327848 0.3125 -2.71896e-18 0.142282 -0.3125 2.78209e-18 0.142437 0.125
6.9163e-19 0.327724 -0.125 2.08789e-18 0.327878 0.25 0 0.265848 -0.25 0
0.266105 0.3125 0 0.204049 -0.3125 0 0.204285 -0.375 0 0
0.375 0 0 -0.375 0 0.01875 0.375 0 0.01875 0.1875
0 0.32767 -0.1875 0 0.327912 0.375 -8.46552e-19 0.0805098 -0.375 -8.58061e-19
0.0806002 0.205871 0 0.327658 3.76968e-12 0 0.389612 0.0625 3.97291e-19 0.389565
-0.0625 2.2957e-18 0.389672 0.375 0 0.14227 -0.375 0 0.142454 0.125
0 0.389523 -0.125 0 0.389709 0.3125 0 0.265819 -0.3125 0
0.266137 0.25 -1.46378e-18 0.327628 -0.25 3.03983e-18 0.32795 0.375 0 0.204032
-0.375 2.41679e-18 0.20431 0.1875 -1.87127e-18 0.389464 -0.1875 3.73964e-19 0.389752 -0.4375
0 0 0.4375 0 0 -0.4375 1.89554e-18 0.01875 0.4375 -2.57557e-18
0.01875 0.213183 0 0.389442 0.4375 1.57772e-30 0.0805056 -0.4375 0 0.0806086
4.53883e-12 -3.03619e-18 0.451433 0.3125 0 0.32759 -0.3125 0 0.327991 0.0625
0 0.451375 -0.0625 1.57772e-30 0.451497 0.375 0 0.265795 -0.375 -1.57772e-30
0.266171 0.4375 3.41059e-18 0.142262 -0.4375 -9.03976e-19 0.142471 0.25 0 0.389411
-0.25 0 0.389799 0.125 -2.36403e-18 0.451324 -0.125 -5.90775e-19 0.451542 0.4375
0 0.204018 -0.4375 0 0.204337 0.1875 0 0.451262 -0.1875 0
0.451594 0.375 1.63705e-18 0.327558 -0.375 3.27259e-18 0.328036 0.3125 0 0.389363
-0.3125 -1.14983e-18 0.38985 -0.5 0 0 0.5 1.57772e-30 0 -0.5
0 0.01875 0.5 1.57772e-30 0.01875 0.222412 0 0.451226 0.5 2.84117e-18
0.0805025 -0.5 2.92717e-18 0.0806173 0.4375 -2.12621e-18 0.265775 -0.4375 -1.47432e-18 0.266207
5.55162e-12 1.57772e-30 0.513258 0.25 0 0.451197 -0.25 0 0.451651 0.0625
0 0.513189 -0.0625 4.3536e-19 0.513324 0.5 1.57772e-30 0.142255 -0.5 0
0.142489 0.125 0 0.513128 -0.125 0 0.513378 0.5 -1.57772e-30 0.204008
-0.5 3.15544e-30 0.204364 0.375 1.57772e-30 0.389324 -0.375 0 0.389905 0.1875
0 0.513077 0.4375 0 0.327533 -0.1875 0 0.51344 -0.4375 0
0.328082 0.3125 0 0.451139 -0.3125 3.15544e-30 0.451713 -0.5625 6.31089e-30 0
0.5625 3.15544e-30 0 -0.5625 -1.00175e-18 0.01875 0.5625 -2.39654e-18 0.01875 0.23435
0 0.513009 0.5 0 0.265761 -0.5 3.15544e-30 0.266245 0.5625 0
0.0805006 -0.5625 -6.31089e-30 0.0806264 0.25 0 0.512987 -0.25 0 0.513508
6.87235e-12 -3.15544e-30 0.5751 0.0625 0 0.575006 -0.0625 0 0.575154 0.5625
-3.18176e-18 0.142251 -0.5625 2.78172e-19 0.142507 0.4375 -3.799e-19 0.389292 -0.4375 4.15711e-19
0.389963 0.375 -3.25704e-18 0.451091 -0.375 -1.7012e-18 0.45178 0.125 3.22891e-18 0.574935
-0.125 2.76461e-18 0.575218 0.5 1.53587e-19 0.327515 -0.5 1.56796e-18 0.328131 0.5625
-3.15544e-30 0.204002 -0.5625 0 0.204393 0.3125 -3.04445e-18 0.512918 -0.3125 -1.22914e-18
0.513582 0.1875 -7.88861e-31 0.574873 -0.1875 3.15544e-30 0.57529 0.5625 0 0.265753
-0.5625 0 0.266284 -0.625 0 0 0.625 0 0 -0.625
0 0.01875 0.625 0 0.01875 0.249434 0 0.574782 0.25 -2.35481e-18
0.574782 -0.25 2.86973e-18 0.57537 0.25 0 0.576361 0.4375 0 0.451052
-0.4375 0 0.451849 0.625 -4.13928e-19 0.0805 -0.625 1.78069e-18 0.0806358 0.5
-3.15544e-30 0.389269 -0.5 0 0.390023 0.375 0 0.512859 -0.375 0
0.51366 8.59817e-12 0 0.636923 0.0625 -4.29693e-19 0.636828 -0.0625 2.53227e-18 0.636986
0.625 0 0.14225 -0.625 0 0.142527 0.125 0 0.636744 -0.125
0 0.63706 0.5625 0 0.327504 -0.5625 0 0.328182 0.3125 7.88861e-31
0.5747 -0.3125 0 0.575456 0.625 -2.48369e-18 0.204 -0.625 2.63567e-18 0.204423
0.1875 -2.99188e-18 0.636672 -0.1875 1.69459e-18 0.637144 0.5 -3.15544e-30 0.451023 -0.5
6.31089e-30 0.451922 0.4375 0 0.512812 -0.4375 0 0.513742 0.625 0
0.26575 -0.625 0 0.266325 0.25 0 0.636581 0.5625 -2.7276e-18 0.389255
-0.25 0 0.637237 -0.5625 -2.95645e-18 0.390085 0.375 -2.32583e-18 0.57463 -0.375
-1.63671e-19 0.575547 -0.6875 0 0 0.6875 0 0 -0.6875 7.54477e-19
0.01875 0.6875 2.80491e-18 0.01875 0.265822 0 0.636557 0.6875 0 0.0804911
-0.6875 2.52435e-29 0.0806455 1.08822e-11 3.25112e-18 0.698748 0.0625 -3.15544e-30 0.698655 -0.0625
0 0.698821 0.6875 0 0.142233 -0.6875 -5.02969e-19 0.142546 0.625 0
0.3275 -0.625 -2.67663e-18 0.32822 0.3125 2.79272e-18 0.636486 0.125 2.61292e-18 0.698557
-0.3125 -2.72054e-18 0.637337 -0.125 2.93961e-18 0.698907 0.5 -3.15544e-30 0.512778 -0.5
0 0.513828 0.6875 0 0.203976 -0.6875 0 0.204444 0.5625 0
0.451006 -0.5625 0 0.451996 0.4375 0 0.574574 -0.4375 0 0.575643
0.1875 0 0.698474 -0.1875 -6.31089e-30 0.699004 0.625 0 0.38925 -0.625
1.26218e-29 0.390123 0.6875 2.67855e-18 0.26572 -0.6875 3.2715e-19 0.266348 0.375 0
0.636404 -0.375 0 0.637442 0.25 -2.90235e-18 0.698407 -0.25 0 0.699111
-0.75 5.04871e-29 0 0.75 0 0 -0.75 5.04871e-29 0.01875 0.75
0 0.01875 0.75 0 0.0804865 -0.75 0 0.0806519 0.285281 3.9443e-31
0.698333 1.39788e-11 -6.31089e-30 0.760575 0.5625 -5.36693e-20 0.512757 0.6875 0 0.327466
0.5 -2.55668e-18 0.574533 -0.6875 0 0.328255 -0.5625 0 0.513884 -0.5
2.53415e-18 0.575741 0.0625 0 0.760507 -0.0625 -1.16387e-18 0.76066 0.75 0
0.142224 -0.75 0 0.142557 0.3125 0 0.698276 -0.3125 0 0.699225
0.125 0 0.760375 0.625 1.75231e-18 0.451 -0.125 -6.31089e-30 0.760759 -0.625
-3.24651e-18 0.45203 0.4375 -1.27166e-18 0.636338 -0.4375 -3.18222e-18 0.637551 0.75 -1.59252e-18
0.203961 -0.75 -3.38897e-18 0.204465 0.1875 -2.65116e-18 0.760279 -0.1875 0 0.76087
0.6875 4.68344e-19 0.389213 -0.6875 1.91147e-18 0.390167 0.375 0 0.698181 -0.375
1.91584e-18 0.699345 0.75 0 0.2657 -0.75 -5.04871e-29 0.266377 0.25 1.57772e-30
0.760201 -0.25 6.31089e-30 0.760991 0.5625 0 0.574508 -0.5625 0 0.57579
0.625 0 0.51275 -0.625 0 0.513942 0.5 0 0.63629 -0.5
0 0.637631 -0.8125 0 0 0.8125 -3.15544e-30 0 -0.8125 -2.65391e-19
0.01875 0.8125 -2.54486e-18 0.01875 0.8125 -3.15544e-30 0.0804832 -0.8125 0 0.080659
0.75 0 0.327439 -0.75 0 0.328293 0.308355 0 0.760081 0.3125
0 0.760072 0.6875 6.31089e-30 0.450962 1.8335e-11 -6.31089e-30 0.822406 -0.3125 -2.82488e-18
0.761121 -0.6875 0 0.452083 0.4375 0 0.698104 0.0625 6.31089e-30 0.822327
0.8125 2.65865e-18 0.142217 -0.0625 -6.31089e-30 0.822503 -0.8125 -1.243e-18 0.142571 -0.4375
0 0.699469 0.3125 -9.86076e-32 0.768058 0.125 -2.30523e-18 0.822198 -0.125 2.23709e-18
0.822616 0.8125 0 0.20395 -0.8125 1.00974e-28 0.204487 0.1875 3.15544e-30 0.822087
-0.1875 0 0.822743 0.75 0 0.389179 -0.75 0 0.390213 0.375
-1.57772e-30 0.759961 -0.375 0 0.761257 0.625 -3.56137e-19 0.5745 0.5625 5.79545e-20
0.63626 -0.625 3.27226e-18 0.575858 -0.5625 2.77466e-18 0.637702 0.8125 0 0.265684
-0.8125 0 0.266417 0.6875 0 0.512713 -0.6875 8.28782e-19 0.514003 0.5
0 0.698047 0.25 0 0.821997 -0.5 6.31089e-30 0.699537 -0.25 -1.344e-19
0.822881 -0.875 0 0 0.875 0 0 0.75 -2.10549e-18 0.45092
-0.875 0 0.01875 0.875 0 0.01875 -0.75 1.56797e-20 0.452151 0.8125
0 0.327419 -0.8125 -1.00974e-28 0.32834 0.4375 0 0.759871 -0.4375 -6.31089e-30
0.761365 0.875 5.04368e-19 0.0804812 -0.875 -2.51369e-18 0.080669 0.3125 0 0.821875
-0.3125 0 0.823027 2.47722e-11 -1.26218e-29 0.88424 0.0625 -1.66421e-18 0.884149 0.875
0 0.142212 0.33235 7.88861e-31 0.821834 -0.875 0 0.142591 -0.0625 2.92278e-18
0.884351 0.625 6.31089e-30 0.63625 0.125 0 0.884028 -0.625 0 0.637779
-0.125 1.26218e-29 0.88448 0.6875 0 0.574467 0.5625 6.31089e-30 0.698012 -0.6875
2.52435e-29 0.575948 -0.5625 0 0.699618 0.875 2.58384e-20 0.203944 -0.875 9.09699e-19
0.204515 0.8125 0 0.389154 -0.8125 3.37331e-18 0.390268 0.375 1.97423e-18 0.821747
0.1875 -1.85962e-18 0.8839 -0.1875 2.49188e-18 0.884624 -0.375 -1.97905e-18 0.82318 0.75
6.31089e-30 0.512662 -0.75 0 0.514078 0.5 0 0.759805 -0.5 0
0.761448 0.875 -6.31089e-30 0.265675 -0.875 0 0.266443 0.25 0 0.883795
-0.25 0 0.88478 0.8125 0 0.450889 -0.8125 0 0.452199 0.4375
3.15544e-30 0.821642 -0.4375 1.26218e-29 0.823271 0.875 -9.20802e-19 0.327407 -0.875 9.03125e-19
0.328375 0.6875 0 0.636224 0.625 -2.7446e-18 0.698 0.3125 -2.49404e-18 0.883686
-0.9375 4.03897e-28 0 0.9375 0 0 -0.9375 -1.92536e-18 0.01875 0.9375
4.53743e-19 0.01875 -0.6875 -3.21362e-18 0.637874 -0.625 1.90886e-19 0.699706 -0.3125 8.78757e-19
0.884945 0.9375 0 0.0804805 -0.9375 4.03897e-28 0.0806755 0.75 -1.26218e-29 0.574406
0.5625 1.00038e-18 0.759764 -0.75 0 0.576008 3.4849e-11 2.81091e-18 0.946078 -0.5625
-2.18181e-18 0.761541 0.0625 0 0.945974 0.9375 1.49422e-18 0.142211 -0.0625 -1.26218e-29
0.946205 -0.9375 1.98124e-18 0.142604 0.358506 3.9443e-31 0.883577 0.125 -1.04263e-18 0.945865
-0.125 2.57769e-18 0.946353 0.875 0 0.389138 -0.875 0 0.39031 0.9375
0 0.203942 -0.9375 4.03897e-28 0.204536 0.375 7.88861e-31 0.883538 0.8125 -2.70638e-18
[...]
POINT_DATA 9400
FIELD attributes 1
U 3 9400 float
20 0 0 20.1749 0.00221655 -0.00520975 20 0 0 20 0
0 20.1668 0.00216103 -0.00510624 20.1832 0.00227989 -0.00531156 20.1796 0.00240769 -0.0144798
20.188 0.00246456 -0.0148105 20.1715 0.00234644 -0.0141391 20 0 0 20
0 0 20.159 0.0021168 -0.00499939 20.1917 0.00233205 -0.0054107 20.1802 0.00246698
-0.0256726 20.1965 0.00250785 -0.0151291 20.1637 0.00229732 -0.0137894 20 0 0
20.1886 0.00252058 -0.0262675 20.1721 0.0024066 -0.0250586 20.1959 0.00234744 -0.00545573 20
0 0 20 0 0 20.2029 0.00253356 -0.0153476 20.1514 0.00205774
-0.00488966 20.2004 0.0023639 -0.00550389 20.1972 0.00256568 -0.0268395 20.1642 0.00235293 -0.0244292
20.2053 0.00254353 -0.0154324 20.1561 0.00223021 -0.0134314 20.18 0.00250248 -0.0370986 20.1884
0.00256544 -0.0379546 20.1719 0.00243592 -0.0362151 20.2053 0.00260241 -0.0273436 20.206 0.00260549
-0.0273857 20.1566 0.00228197 -0.0237851 20.197 0.00261422 -0.0387777 20.164 0.00238246 -0.0353082
20 0 0 20 0 0 20.1441 0.00198917 -0.00477671 20.2093
0.0024198 -0.0055904 20.2059 0.00263039 -0.0331699 20.2143 0.00260603 -0.0157182 20.1487 0.00214456
-0.0130663 20.1792 0.0025383 -0.0485261 20.1876 0.00261001 -0.049656 20.1711 0.00246589 -0.0473615
20.2059 0.00265791 -0.0395633 20.1564 0.00231232 -0.0343803 20.2065 0.00266311 -0.039619 20.215
0.00267259 -0.0279023 20.1492 0.00219036 -0.0231302 20.1963 0.00266207 -0.0507435 20.1632 0.00241298
-0.0461666 20 0 0 20 0 0 20.137 0.00194513 -0.0046623
20.2184 0.00248314 -0.00567018 20.2235 0.00267963 -0.0159851 20.2149 0.00272732 -0.0403068 20.1416
0.00208565 -0.0126962 20.149 0.00222382 -0.0334361 20.2052 0.00270891 -0.0517806 20.1555 0.00234342
-0.0449461 20.1775 0.00255885 -0.0601452 20.2069 0.00272215 -0.0519668 20.186 0.0026268 -0.0615515
20.1693 0.00248774 -0.0586969 20.2243 0.00274907 -0.0283863 20.1421 0.00212486 -0.0224671 20.1947
0.00267988 -0.0629057 20.1613 0.00243122 -0.0572093 20.2143 0.0027788 -0.0527637 20.1481 0.00225695
-0.0437064 20.2242 0.00280438 -0.0410034 20.1418 0.00215869 -0.0324802 20 0 0
20 0 0 20.1301 0.00190873 -0.00454759 20.2277 0.00252049 -0.00574328 20.2036
0.00272926 -0.0641976 20.1536 0.00235836 -0.0556916 20.2329 0.00272539 -0.0162319 20.1347 0.00204028
-0.0123231 20.2063 0.00275047 -0.0645577 20.1758 0.00257689 -0.0717693 20.1844 0.00264477 -0.0734634
20.1675 0.00250388 -0.0700255 20.2337 0.00279768 -0.0288347 20.1352 0.00207279 -0.0217976 20.1931
0.00269975 -0.0750962 20.1595 0.00244424 -0.0682352 20.2236 0.00285501 -0.0536856 20.141 0.00219229
-0.042452 20.2128 0.00280143 -0.0654226 20.1462 0.00226772 -0.0541514 20.2337 0.00285387 -0.0416489
20.135 0.0021066 -0.0315147 20.2022 0.00275126 -0.076656 20.1518 0.00237023 -0.0664096 20
0 0 20 0 0 20.1235 0.00186204 -0.00443266 20.2372 0.00256437
-0.00580947 20.206 0.00278128 -0.0772638 20.2425 0.00277136 -0.0164568 20.1281 0.00196757 -0.0119494
20.1745 0.00262062 -0.0837429 20.2222 0.00287981 -0.0665719 20.139 0.00219953 -0.0525932 20.1831
0.00269691 -0.0857284 20.1662 0.00254031 -0.0816992 20.2331 0.00290519 -0.0545405 20.1341 0.00214063
-0.0411874 20.2433 0.00284714 -0.0292438 20.1286 0.00198705 -0.0211249 20.2115 0.00282433 -0.0781352
20.1443 0.00227874 -0.0645581 20.192 0.00275513 -0.0876443 20.1582 0.00247942 -0.0796033 20.2434
0.00290538 -0.0422378 20.1283 0.00202554 -0.0305422 20.2011 0.00280834 -0.0894764 20.1504 0.00240594
-0.0774681 20.2319 0.00293365 -0.0676378 20.1321 0.00214372 -0.0510236 20.221 0.00290403 -0.0795242
20.1371 0.00220947 -0.0626863 20 0 0 20 0 0 20.1172
0.0017889 -0.00431768 20.2469 0.00262958 -0.00586668 20.2063 0.00284933 -0.0904469 20.2523 0.00284134
-0.0166571 20.1217 0.0018822 -0.0115751 20.2429 0.00295972 -0.0553217 20.1275 0.00206457 -0.0399161
20.1733 0.00270051 -0.0957028 20.2105 0.00288173 -0.0912137 20.143 0.00231632 -0.075304 20.1819
0.00278543 -0.0980005 20.1649 0.00261117 -0.0933378 20.2531 0.00291875 -0.0296099 20.1222 0.00189931
-0.0204498 20.1908 0.00284723 -0.100221 20.1569 0.00254625 -0.0909159 20.2532 0.00297922 -0.0427649
20.122 0.00193208 -0.0295644 20.2307 0.00296122 -0.080814 20.1302 0.00215038 -0.0608016 20.2
0.00290304 -0.102347 20.2417 0.00299167 -0.0686126 20.1491 0.00247127 -0.0884518 20.1255 0.00206011
-0.0494475 20.2201 0.00296238 -0.0928468 20.1357 0.00224859 -0.0731175 20 0 0
20 0 0 20.111 0.00170855 -0.00420128 20.2567 0.00268729 -0.00591415 20.2071
0.00295915 -0.103858 20.2528 0.00303711 -0.0560224 20.1211 0.00196679 -0.0386414 20.2622 0.0029102
-0.0168311 20.1156 0.00181828 -0.0112002 20.2094 0.00297789 -0.104363 20.1416 0.00238074 -0.0859569
20.1713 0.00276884 -0.107756 20.18 0.00285612 -0.110384 20.1629 0.00267516 -0.105051 20.263
0.00298829 -0.0299304 20.1161 0.00185301 -0.0197736 20.2407 0.00302343 -0.0819949 20.1235 0.00206006
-0.058909 20.2299 0.0030218 -0.0943647 20.1288 0.00219077 -0.0709168 20.189 0.00292151 -0.112925
20.1548 0.00260471 -0.102285 20.2517 0.00307059 -0.0694879 20.1191 0.00196713 -0.0478693 20.2632
0.00304989 -0.0432266 20.1159 0.00186328 -0.028582 20.2191 0.00305988 -0.106261 20.1344 0.00231125
-0.0834397 20.1983 0.00298201 -0.115363 20.147 0.00252668 -0.0994735 20.2628 0.0031094 -0.0566375
20.115 0.00188124 -0.0373668 20 0 0 20 0 0 20.1052
0.00166017 -0.00408268 20.2666 0.00272453 -0.00595248 20.2078 0.00305853 -0.117655 20.2079 0.00305923
-0.117676 20.1395 0.002434 -0.0966288 20.2078 0.00306004 -0.118022 20.24 0.00308827 -0.0957556
20.1221 0.00210354 -0.0687079 20.2722 0.00295548 -0.016977 20.1097 0.00177745 -0.0108275 20.2508
0.00310509 -0.0830569 20.1171 0.00196916 -0.057014 20.2291 0.00312182 -0.108026 20.1275 0.00225239
-0.0809093 20.1686 0.00279245 -0.119956 20.1774 0.00287678 -0.122933 20.1601 0.00270144 -0.116895
20.2731 0.00303563 -0.030201 20.1102 0.00181921 -0.0190976 20.1866 0.00294425 -0.125814 20.1519
0.00262807 -0.113768 20.2619 0.00314432 -0.0702571 20.113 0.001899 -0.0462957 20.2177 0.00314208
-0.119855 20.1323 0.00236038 -0.0937608 20.2733 0.00309946 -0.0436168 20.11 0.00181621 -0.0275933
20.196 0.00300909 -0.128581 20.144 0.00254607 -0.110593 20.2502 0.00317587 -0.0970079 20.1158
0.00200575 -0.0664958 20.2393 0.00319236 -0.109647 20.1209 0.00216638 -0.0783749 20.2731 0.00316146
-0.0571588 20.1091 0.00182539 -0.036096 20.2057 0.00309083 -0.131212 20.2611 0.00318062 -0.0839917
20.1364 0.00244989 -0.107383 20.111 0.00190832 -0.0551222 20.2278 0.00320714 -0.121886 20.1254
0.00229553 -0.0908799 20 0 0 20 0 0 20.0995 0.00162803
-0.00396017 20.2766 0.00275887 -0.0059808 20.2083 0.00311261 -0.13184 20.2824 0.00299645 -0.0170924
20.1041 0.00174169 -0.0104584 20.1658 0.00282618 -0.132511 20.1747 0.00291408 -0.13585 20.1572
0.00273224 -0.129082 20.2833 0.00308091 -0.0304174 20.1046 0.00177917 -0.0184219 20.2723 0.00319878
-0.07091 20.1071 0.00184858 -0.0447343 20.2158 0.00317688 -0.133691 20.184 0.00298279 -0.139083
20.1292 0.00237198 -0.10415 20.1489 0.00265743 -0.125585 20.2497 0.00328638 -0.111108 20.1146
0.00206229 -0.075843 20.2836 0.00314721 -0.0439289 20.1043 0.00177497 -0.0265945 20.2607 0.00325582
-0.0981116 20.1096 0.00192838 -0.0642854 20.2382 0.00328179 -0.123752 20.1187 0.00220227 -0.087997
20.1935 0.00304944 -0.142195 20.141 0.00257309 -0.122039 20.2716 0.00323773 -0.0847874 20.1051
0.00185827 -0.0532364 20.2834 0.00321069 -0.0575777 20.1035 0.00178206 -0.0348303 20.226 0.00324537
-0.136005 20.1222 0.00230274 -0.100904 20.2034 0.00313396 -0.14516 20.1333 0.00247381 -0.118457
20 0 0 20 0 0 20.0942 0.00161363 -0.0038286 20.2867
0.0027969 -0.0059987 20.2926 0.00303919 -0.0171774 20.0988 0.00171606 -0.0100908 20.2092 0.00318367
-0.146736 20.1629 0.00288392 -0.145249 20.2603 0.00337213 -0.112398 20.2827 0.00325133 -0.0714358
20.2488 0.00337858 -0.125438 20.1015 0.00180176 -0.0431936 20.1085 0.00197249 -0.0733186 20.1124
0.0020965 -0.0851193 20.1719 0.00297917 -0.14898 20.1542 0.0027817 -0.141425 20.2937 0.00312918
-0.0305797 20.0993 0.00175142 -0.0177454 20.2136 0.00322202 -0.147952 20.126 0.00239278 -0.114853
20.1812 0.00304956 -0.152592 20.2713 0.0033161 -0.0990531 20.1459 0.00270389 -0.137532 20.1038
0.00187033 -0.0620767 20.2366 0.00332225 -0.138134 20.1155 0.00220555 -0.0976574 20.294 0.00320295
-0.0441631 20.099 0.0017466 -0.025581 20.1909 0.00311694 -0.156075 20.1379 0.00261864 -0.133589
20.2822 0.00329256 -0.0854305 20.0995 0.00181023 -0.0513616 20.2241 0.00329166 -0.150562 20.119
0.00232289 -0.11124 20.2939 0.00327242 -0.0578939 20.0982 0.00174838 -0.0335704 20.2009 0.00320186
-0.159399 20.1303 0.00251879 -0.129611 20.2596 0.00346677 -0.12693 20.1063 0.00201052 -0.0822537
20.2711 0.00343642 -0.113502 20.1027 0.00190788 -0.0708126 20.2474 0.0034179 -0.140061 20.1091
0.00210215 -0.0944152 20 0 0 20 0 0 20.0891 0.00159486
-0.00368506 20.2969 0.00287195 -0.00600562 20.303 0.00311934 -0.0172303 20.0937 0.0016857 -0.00972355
20.2933 0.00331484 -0.0718331 20.0961 0.00176044 -0.0416803 20.2106 0.00328416 -0.162327 20.2113
0.00329001 -0.162535 20.2821 0.0033718 -0.0998161 20.1594 0.00292071 -0.158268 20.123 0.00243676
-0.125613 20.0981 0.00182014 -0.0598714 20.2348 0.00336966 -0.152969 20.1685 0.00301585 -0.162416
20.3041 0.0032123 -0.030685 20.1507 0.00281739 -0.154025 20.0942 0.00172014 -0.0170614 20.1124
0.0022283 -0.107628 20.2109 0.00329633 -0.164473 20.178 0.00308934 -0.166436 20.1423 0.00273494
-0.14971 20.3045 0.00329458 -0.0443152 20.0939 0.00171532 -0.0245382 20.1878 0.00316021 -0.170316
20.1343 0.002646 -0.145344 20.293 0.00335705 -0.0859185 20.0941 0.00176609 -0.0494987 20.222
0.00335983 -0.16547 20.116 0.0023665 -0.12161 20.2706 0.00353545 -0.12821 20.2584 0.00350592
-0.14177 20.1006 0.00194554 -0.0794176 20.103 0.0020225 -0.0911879 20.3045 0.00337158 -0.0581023
20.093 0.00171282 -0.0323211 20.2821 0.00349475 -0.114401 20.0971 0.00185445 -0.0683327 20.2459
0.00346768 -0.155152 20.198 0.00324805 -0.174027 20.106 0.0021225 -0.104023 20.1266 0.00254391
-0.140945 20 0 0 20 0 0 20.293 0.00344041 -0.100395
20.0842 0.00155198 -0.00355007 20.3071 0.00294386 -0.00600112 20.0928 0.00177234 -0.0576662 20.304
0.00341376 -0.0720964 20.091 0.00171862 -0.0402156 20.233 0.00343951 -0.16818 20.1094 0.00227279
-0.117613 20.3134 0.00319989 -0.0172497 20.0889 0.00164364 -0.00938171 20.2086 0.00333898 -0.177535
20.1193 0.00245949 -0.136528 20.1552 0.00296652 -0.171552 20.1645 0.0030642 -0.176146 20.3145
0.00329567 -0.0307308 20.212 0.00336231 -0.178578 20.0895 0.00167775 -0.0163501 20.1464 0.00285977
-0.16686 20.2697 0.00357768 -0.143242 20.1741 0.00314286 -0.180609 20.0972 0.00195817 -0.0879885
20.138 0.00277165 -0.162096 20.2817 0.00359922 -0.129257 20.2572 0.00355855 -0.157091 20.095
0.00188963 -0.0766254 20.0999 0.00203571 -0.10044 20.315 0.0033816 -0.044382 20.089 0.00167216
-0.0234155 20.3038 0.0034568 -0.086245 20.0891 0.00172185 -0.0476478 20.2195 0.00341245 -0.18082
20.1841 0.00321867 -0.184919 20.1299 0.00267832 -0.15728 20.1124 0.00238568 -0.132108 20.2932
0.00357029 -0.115085 20.0919 0.00180254 -0.0658863 20.2442 0.00354292 -0.170642 20.1031 0.00216171
-0.113633 20.3151 0.00346172 -0.0581989 20.088 0.00166696 -0.0311063 20.1945 0.00330986 -0.18905
20.1222 0.00257343 -0.152434 20.3041 0.00354644 -0.100785 20.0877 0.00172514 -0.0554425 20.2307
0.0034955 -0.183859 20.1057 0.00228805 -0.127697 20.3148 0.00350619 -0.0722208 20.0862 0.0016712
-0.0388842 20.2811 0.00364735 -0.144452 20.2687 0.00363251 -0.158768 20.2052 0.00340424 -0.192965
20 0 0 20 0 0 20.0795 0.00151298 -0.00352583 20.3174
0.00300966 -0.00598335 20.0917 0.00190041 -0.084826 20.0941 0.0019677 -0.0968861 20.1149 0.00248641
-0.147574 20.3238 0.00327296 -0.0172336 20.0843 0.00160453 -0.00916126 20.2931 0.00368038 -0.130058
20.2558 0.00363905 -0.172835 20.0898 0.00183552 -0.0738874 20.1507 0.0030803 -0.185256 20.0971
0.00206096 -0.109686 20.16 0.00318822 -0.190324 20.325 0.00337163 -0.0307155 20.1418 0.00296098
-0.180091 20.0849 0.00162887 -0.0156152 20.2134 0.00346214 -0.195665 20.1697 0.00327189 -0.195259
20.1333 0.0028653 -0.174855 20.3148 0.00355238 -0.0864043 20.0845 0.00167379 -0.0458198 20.3256
0.0034563 -0.044361 20.0842 0.00163045 -0.0221536 20.2164 0.00348289 -0.196633 20.3044 0.00368338
-0.11555 20.1079 0.00240826 -0.142715 20.0868 0.00175188 -0.0634802 20.2422 0.00360018 -0.186626
20.0995 0.00217657 -0.123311 20.1799 0.00335086 -0.200029 20.1252 0.00276783 -0.169572 20.3258
0.0035354 -0.0581803 20.0831 0.00162422 -0.0299831 20.1905 0.00344495 -0.204612 20.1175 0.00265914
-0.164264 20.2804 0.0037053 -0.160153 20.0886 0.00190789 -0.0933654 20.2927 0.00373236 -0.14538
20.2676 0.0037158 -0.174738 20.3152 0.00364513 -0.100978 20.0864 0.00184507 -0.0817029 20.0829
0.00167504 -0.0531339 20.0914 0.00198418 -0.105784 20.2279 0.003572 -0.200033 20.1013 0.00230527
-0.137869 20.2145 0.0035598 -0.205456 20.3256 0.00358473 -0.0722016 20.0816 0.00161911 -0.0378437
20.3045 0.00379679 -0.130608 20.2541 0.00369801 -0.189097 20.2015 0.00354308 -0.208969 20.0849
0.0017826 -0.071231 20.1102 0.00256897 -0.15895 20.0935 0.00207855 -0.118965 20 0
0 20 0 0 20.0755 0.0014627 -0.0038871 20.3277 0.00309271 -0.00595192
20.3343 0.00336704 -0.0171811 20.0807 0.00155276 -0.00916701 20.146 0.00322665 -0.199295 20.1554
0.00334086 -0.204881 20.137 0.00309934 -0.193614 20.3355 0.00346676 -0.0306371 20.0805 0.00155371
-0.0149947 20.3157 0.00378452 -0.115787 20.0819 0.00169937 -0.0611216 20.2397 0.00368107 -0.203137
20.3257 0.00363632 -0.0863909 20.1652 0.0034284 -0.210334 20.08 0.0016191 -0.0440686 20.1285
0.00299712 -0.187864 20.095 0.00219121 -0.133058 20.2129 0.00362603 -0.213054 20.1032 0.0024878
-0.15364 20.2147 0.00364049 -0.213624 20.3362 0.00355423 -0.0442493 20.0806 0.00157729 -0.0210986
20.2923 0.00379616 -0.161216 20.2796 0.00379046 -0.176317 20.1756 0.003511 -0.21561 20.1204
0.00289491 -0.182072 20.0833 0.00185026 -0.089878 20.0859 0.00192171 -0.101934 20.3045 0.00385021
-0.146025 20.2662 0.00377841 -0.191248 20.0815 0.00179059 -0.0786254 20.0878 0.00200169 -0.114673
20.3365 0.00363694 -0.0580424 20.0788 0.00155617 -0.0289831 20.1864 0.0036096 -0.220688 20.1127
0.00278144 -0.176261 20.3264 0.00373171 -0.100968 20.0782 0.00162003 -0.0506535 20.2247 0.00372229
-0.216849 20.0967 0.00238204 -0.148359 20.3161 0.00390122 -0.130898 20.2519 0.00378287 -0.205916
20.0802 0.00172831 -0.0687486 20.0891 0.00209587 -0.128296 20.3365 0.00368751 -0.0720338 20.0779
0.00155821 -0.0372302 20.1976 0.00371248 -0.22553 20.1055 0.00268668 -0.170451 20 0
0 20.3379 0.00314816 -0.00590849 20.3448 0.00343655 -0.0170931 20.2918 0.00388733 -0.177536
20.3271 0.00387395 -0.115789 20.0808 0.0018616 -0.0981462 20.2369 0.00384367 -0.220323 20.077
0.00164301 -0.0588339 20.1411 0.0033577 -0.213589 20.3044 0.00392012 -0.161963 20.0905 0.00226162
-0.143125 20.2785 0.00385773 -0.19304 20.1506 0.00347399 -0.219738 20.1321 0.00322809 -0.207347
20.3461 0.00353821 -0.0304948 20.0784 0.00179381 -0.0864158 20.0825 0.00193854 -0.110445 20.3368
0.00374265 -0.0861981 20.0758 0.00154162 -0.0425605 20.2093 0.0038002 -0.230082 20.0986 0.00260258
-0.164652 20.1607 0.00356678 -0.225755 20.1235 0.00312002 -0.201039 20.3163 0.00395911 -0.146375
20.3468 0.00363402 -0.0440453 20.2644 0.00386901 -0.208344 20.077 0.00173459 -0.0756214 20.0834
0.00202035 -0.123588 20.1712 0.00365591 -0.231591 20.2153 0.00385115 -0.232188 20.1154 0.00301229
-0.194695 20.3472 0.00372558 -0.0577831 20.3376 0.00384527 -0.100747 20.0745 0.00155596 -0.0485886
20.2214 0.00390266 -0.234316 20.1822 0.00375926 -0.237214 20.1077 0.00289502 -0.18834 20.3278
0.00399544 -0.130918 20.2494 0.00395638 -0.223443 20.0922 0.00249582 -0.158897 20.0756 0.00166863
-0.0666376 20.0846 0.00215225 -0.137951 20.3473 0.00377535 -0.0717145 20.3042 0.00401735 -0.178398
20.2911 0.00395719 -0.194434 20.1937 0.00386595 -0.242591 20.0759 0.00180449 -0.0944331 20.0774
0.00188118 -0.106293 20.1005 0.00279544 -0.181989 20.3165 0.00403282 -0.162378 20.2771 0.003954
-0.210378 20.0737 0.00173577 -0.0829323 20.0781 0.00195644 -0.118944 20.3386 0.00399533 -0.115547
20.2339 0.00403281 -0.238201 20.0727 0.00156358 -0.0567429 20 0 0 20
0 0 20.3482 0.00318826 -0.00585408 20.0684 0.00137232 -0.00495345 20.0861 0.00237147
-0.153205 20.3552 0.00348781 -0.0169698 20.3478 0.00383226 -0.0858223 20.1357 0.00346001 -0.228264
20.2056 0.00395973 -0.247665 20.3283 0.00405779 -0.14642 20.2623 0.00404857 -0.226179 20.1454
0.00357809 -0.235016 20.1265 0.0033296 -0.221422 20.3566 0.00359378 -0.030288 20.0727 0.00167195
-0.0727985 20.0937 0.00270562 -0.175666 20.079 0.00206552 -0.132839 20.0715 0.00143331 -0.0146434
20.1556 0.00367684 -0.241642 20.1179 0.00321639 -0.214521 20.3573 0.00369313 -0.0437477 20.1663
0.00377392 -0.248086 20.1097 0.00310229 -0.207591 20.2153 0.00404346 -0.25131 20.3394 0.00412052
-0.130659 20.2469 0.00415318 -0.241702 20.0721 0.00160147 -0.0652815 20.3488 0.00394374 -0.10031
20.2181 0.00406818 -0.252386 20.3039 0.00408821 -0.195428 20.0804 0.00225199 -0.147587 20.3579
0.00378774 -0.0574001 20.0873 0.00259374 -0.169402 20.0727 0.00182638 -0.102241 20.07 0.00143125
-0.0273964 20.1775 0.00388413 -0.254301 20.2901 0.00405627 -0.211973 20.3168 0.00413068 -0.17889
20.102 0.00297937 -0.200659 20.0713 0.00174647 -0.090805 20.0731 0.00190028 -0.114371 20.2755
0.00413721 -0.228483 20.3288 0.00413406 -0.162449 20.0693 0.00167159 -0.0793808 20.0738 0.00199512
-0.127799 20.3581 0.00384011 -0.0712408 20.1893 0.0039964 -0.260262 20.0948 0.00287268 -0.193738
20.35 0.00410233 -0.115054 20.231 0.00420119 -0.256731 20.0813 0.00246592 -0.163214 20.2602
0.00424966 -0.244782 20.3403 0.00418141 -0.146146 20.0686 0.00158483 -0.0704143 20.075 0.00215615
-0.142053 20 0 0 20.3583 0.00321868 -0.00578827 20.3656 0.00352649 -0.0168108
20.3588 0.00390044 -0.0852603 20.2016 0.0040971 -0.265908 20.0879 0.00277552 -0.186863 20.0669
0.00141763 -0.0397708 20.1295 0.00357005 -0.243418 20.1393 0.00369216 -0.250815 20.1202 0.00343457
-0.235938 20.367 0.00363922 -0.0300165 20.1497 0.00379374 -0.258094 20.3033 0.00418987 -0.213119
20.3168 0.00420513 -0.196009 20.1115 0.00331741 -0.228409 20.0682 0.00176907 -0.0983649 20.0684
0.0018456 -0.109875 20.3679 0.00374204 -0.0433569 20.2889 0.00424579 -0.230305 20.3294 0.00423203
-0.178997 20.2444 0.00432419 -0.26066 20.1606 0.00389528 -0.265197 20.3512 0.00423063 -0.130112
20.0668 0.00168697 -0.0872938 20.0688 0.00192772 -0.122834 20.1032 0.00319946 -0.220862 20.0757
0.0023456 -0.157113 20.2138 0.00420481 -0.270877 20.36 0.00401533 -0.0996541 20.2145 0.00421107
-0.271166 20.0816 0.00265767 -0.180063 20.3685 0.00383925 -0.0568939 20.1721 0.0040125 -0.272054
20.2738 0.00434236 -0.247393 20.3412 0.00426271 -0.162162 20.0955 0.00307052 -0.213321 20.0658
0.00159812 -0.0765013 20.0699 0.00207955 -0.136618 20.3689 0.00389581 -0.0706133 20.1842 0.00413141
-0.278647 20.0883 0.00295746 -0.205809 20.2278 0.00434541 -0.276018 20.3614 0.00417602 -0.114306
20.2581 0.00442606 -0.26413 20.3523 0.00428972 -0.145547 20.0756 0.00252659 -0.173353 20.0641
0.00143449 -0.0529462 20.0704 0.00224711 -0.151116 20.3167 0.00431338 -0.213806 20.0641 0.00178719
-0.105478 20.3026 0.00438569 -0.231623 20.3299 0.00431103 -0.196161 20.064 0.00170943 -0.0948395
20.0642 0.00186362 -0.117937 20.3697 0.00396 -0.0845128 20.2117 0.00430481 -0.283877 20
0 0 20 0 0 20.3684 0.00328985 -0.00571012 20.1969 0.00423677
-0.284914 20.0617 0.00128469 -0.00608033 20.0815 0.00285657 -0.198366 20.3759 0.00360157 -0.0166146
20.2878 0.00445713 -0.249474 20.1225 0.00367267 -0.259012 20.3421 0.00436603 -0.178703 20.1325
0.00379948 -0.267111 20.1132 0.00353166 -0.25084 20.0628 0.00160242 -0.0840601 20.0652 0.00200312
-0.131296 20.3774 0.00371876 -0.0296786 20.0647 0.00135427 -0.0146769 20.143 0.00390328 -0.275097
20.1044 0.00341187 -0.24263 20.2416 0.0044704 -0.280421 20.3629 0.00430785 -0.129273 20.0699
0.00240663 -0.166743 20.3783 0.0038245 -0.0428701 20.1542 0.00400768 -0.282916 20.2102 0.00435568
-0.290776 20.0962 0.00329218 -0.234416 20.3711 0.0040767 -0.0987788 20.2104 0.00435772 -0.290854
20.2723 0.00452536 -0.267089 20.3535 0.00437685 -0.161507 20.0752 0.0027367 -0.19102 20.0655