# vtk DataFile Version 2.0
track0
ASCII
DATASET POLYDATA
POINTS 15209 float
-1.001 -0.05 0.0011
-1.00088 -0.05 0.0011
-1.00076 -0.05 0.00109999
-1.00064 -0.05 0.00109999
-1.00052 -0.05 0.00109999
-1.0004 -0.05 0.00109998
-0.975398 -0.05 0.00109925
-0.9504 -0.0499999 0.00109824
-0.925402 -0.0499999 0.00109723
-0.900404 -0.0499998 0.00109622
-0.875406 -0.0499998 0.00109522
-0.850407 -0.0499998 0.0010941
-0.825407 -0.0499996 0.00109261
-0.800408 -0.0499995 0.00109113
-0.775408 -0.0499993 0.00108965
-0.750409 -0.0499992 0.00108818
-0.737914 -0.0499991 0.00108725
-0.72542 -0.0499989 0.00108572
-0.712925 -0.0499987 0.00108419
-0.700431 -0.0499985 0.00108266
-0.687936 -0.0499983 0.00108114
-0.675431 -0.0499984 0.00108006
-0.662926 -0.0499981 0.00107837
-0.65042 -0.0499979 0.00107669
-0.637915 -0.0499977 0.00107501
-0.62541 -0.0499975 0.00107333
-0.612898 -0.0499973 0.00107202
-0.600387 -0.049997 0.00107009
-0.587876 -0.0499967 0.00106817
-0.575365 -0.0499964 0.00106625
-0.562854 -0.0499962 0.00106434
-0.550338 -0.0499962 0.00106277
-0.537822 -0.0499958 0.00106061
-0.525307 -0.0499955 0.00105846
-0.512791 -0.0499951 0.0010563
-0.500275 -0.0499947 0.00105415
-0.487751 -0.0499943 0.00105237
-0.475226 -0.0499938 0.00105006
-0.462701 -0.0499933 0.00104775
-0.450177 -0.0499928 0.00104545
-0.437652 -0.0499923 0.00104315
-0.42513 -0.0499924 0.00104121
-0.412607 -0.0499918 0.00103877
-0.400084 -0.0499911 0.00103634
-0.387562 -0.0499905 0.0010339
-0.375039 -0.0499898 0.00103148
-0.362534 -0.049989 0.00102968
-0.350028 -0.0499882 0.00102804
-0.337522 -0.0499874 0.00102641
-0.325017 -0.0499865 0.00102478
-0.312511 -0.0499857 0.00102315
-0.306259 -0.0499852 0.00102239
-0.300007 -0.0499843 0.00102109
-0.293755 -0.0499833 0.00101978
-0.287503 -0.0499823 0.00101848
-0.281251 -0.0499814 0.00101717
-0.275 -0.0499802 0.00101653
-0.26875 -0.049979 0.00101554
-0.2625 -0.0499779 0.00101455
-0.25625 -0.0499767 0.00101356
-0.25 -0.0499756 0.00101257
-0.24375 -0.049975 0.00101216
-0.2375 -0.0499736 0.00101144
-0.23125 -0.0499722 0.00101072
-0.225 -0.0499708 0.00101001
-0.21875 -0.0499694 0.00100929
-0.2125 -0.0499678 0.00100914
-0.20625 -0.0499662 0.00100877
-0.2 -0.0499645 0.00100839
-0.19375 -0.0499628 0.00100802
-0.1875 -0.0499611 0.00100764
-0.18125 -0.0499604 0.00100787
-0.175 -0.0499584 0.00100795
-0.16875 -0.0499564 0.00100803
-0.1625 -0.0499544 0.00100811
-0.15625 -0.0499524 0.0010082
-0.153125 -0.0499512 0.00100837
-0.15 -0.049949 0.00100864
-0.146875 -0.0499467 0.00100891
-0.14375 -0.0499445 0.00100918
-0.140625 -0.0499422 0.00100945
-0.1375 -0.0499402 0.00100973
-0.134374 -0.0499377 0.00101021
-0.131249 -0.0499351 0.00101069
-0.128124 -0.0499325 0.00101116
-0.124999 -0.0499299 0.00101164
-0.121874 -0.0499285 0.00101204
-0.118749 -0.0499256 0.00101268
-0.115624 -0.0499228 0.00101333
-0.112499 -0.0499199 0.00101398
-0.109374 -0.049917 0.00101462
-0.106249 -0.0499148 0.00101516
-0.103124 -0.0499117 0.00101593
-0.0999989 -0.0499086 0.00101671
-0.0968739 -0.0499055 0.00101748
-0.0937488 -0.0499024 0.00101825
-0.0906239 -0.0499008 0.00101888
-0.0874989 -0.0498974 0.00101977
-0.0843739 -0.0498941 0.00102066
-0.0812489 -0.0498907 0.00102156
-0.0781239 -0.0498874 0.00102245
-0.0749989 -0.0498849 0.0010232
-0.0718739 -0.0498814 0.0010242
-0.0687489 -0.0498778 0.0010252
-0.0656238 -0.0498743 0.0010262
-0.0624988 -0.0498707 0.00102721
-0.0593738 -0.0498689 0.00102805
-0.0562488 -0.0498651 0.00102915
-0.0531238 -0.0498613 0.00103026
-0.0499988 -0.0498575 0.00103137
-0.0468738 -0.0498537 0.00103248
-0.0437488 -0.049851 0.00103344
-0.0406238 -0.049847 0.00103466
-0.0374988 -0.049843 0.00103587
-0.0343738 -0.049839 0.00103709
-0.0312488 -0.049835 0.0010383
-0.0281239 -0.049833 0.00103935
-0.0249989 -0.0498287 0.00104066
-0.0218739 -0.0498245 0.00104197
-0.018749 -0.0498202 0.00104329
-0.015624 -0.049816 0.00104461
-0.012499 -0.0498131 0.00104577
-0.00937393 -0.0498086 0.00104718
-0.00624889 -0.0498041 0.00104859
-0.00312386 -0.0497996 0.00105001
1.18288e-06 -0.0497952 0.00105143
0.00312621 -0.049793 0.00105266
0.00625124 -0.0497883 0.00105417
0.00937627 -0.0497836 0.00105568
0.0125013 -0.0497789 0.00105719
0.0156263 -0.0497742 0.0010587
0.0187516 -0.049771 0.00106004
0.0218768 -0.0497661 0.00106164
0.025002 -0.0497612 0.00106324
0.0281273 -0.0497563 0.00106484
0.0312525 -0.0497513 0.00106645
0.0343793 -0.049749 0.00106787
0.037506 -0.0497438 0.00106956
0.0406327 -0.0497387 0.00107125
0.0437595 -0.0497335 0.00107294
0.0468862 -0.0497284 0.00107463
0.050011 -0.0497249 0.00107615
0.0531358 -0.0497196 0.00107792
0.0562606 -0.0497142 0.0010797
0.0593853 -0.0497088 0.00108147
0.0625101 -0.0497035 0.00108325
0.065635 -0.0497009 0.00108484
0.0687598 -0.0496954 0.00108669
0.0718846 -0.0496898 0.00108855
0.0750094 -0.0496842 0.00109041
0.0781342 -0.0496786 0.00109227
0.0812601 -0.0496749 0.00109394
0.084386 -0.0496691 0.00109587
0.0875119 -0.0496633 0.00109781
0.0906377 -0.0496575 0.00109975
0.0937636 -0.0496516 0.00110169
0.0968915 -0.0496489 0.00110343
0.100019 -0.0496429 0.00110543
0.103147 -0.0496369 0.00110744
0.106275 -0.0496309 0.00110946
0.109403 -0.0496248 0.00111148
0.112529 -0.0496209 0.00111329
0.115655 -0.0496147 0.00111537
0.118781 -0.0496084 0.00111744
0.121907 -0.0496022 0.00111953
0.125032 -0.0495959 0.00112161
0.128157 -0.0495931 0.00112349
0.131283 -0.0495867 0.00112562
0.134408 -0.0495802 0.00112777
0.137533 -0.0495738 0.00112991
0.140658 -0.0495673 0.00113206
0.143784 -0.0495631 0.001134
0.146909 -0.0495565 0.0011362
0.150035 -0.0495499 0.0011384
0.153161 -0.0495432 0.00114061
0.156287 -0.0495365 0.00114282
0.159413 -0.0495335 0.00114482
0.16254 -0.0495267 0.00114707
0.165667 -0.0495198 0.00114933
0.168794 -0.049513 0.0011516
0.171921 -0.0495061 0.00115387
0.175047 -0.0495017 0.00115591
0.178172 -0.0494947 0.00115822
0.181298 -0.0494876 0.00116053
0.184424 -0.0494805 0.00116285
0.18755 -0.0494735 0.00116517
0.190674 -0.0494703 0.00116726
0.193799 -0.0494631 0.00116962
0.196923 -0.0494558 0.00117198
0.200048 -0.0494486 0.00117434
0.203172 -0.0494413 0.00117671
0.206296 -0.0494367 0.00117883
0.209421 -0.0494293 0.00118123
0.212545 -0.0494219 0.00118363
0.215669 -0.0494145 0.00118603
0.218794 -0.049407 0.00118844
0.221919 -0.0494037 0.00119061
0.225045 -0.0493961 0.00119304
0.22817 -0.0493885 0.00119548
0.231296 -0.0493809 0.00119792
0.234421 -0.0493733 0.00120037
0.237548 -0.0493685 0.00120256
0.240674 -0.0493607 0.00120503
0.2438 -0.049353 0.0012075
0.246927 -0.0493452 0.00120998
0.250053 -0.0493374 0.00121246
0.25318 -0.0493339 0.00121469
0.256307 -0.049326 0.00121719
0.259434 -0.0493181 0.00121969
0.262561 -0.0493101 0.0012222
0.265688 -0.0493022 0.00122471
0.268813 -0.0492971 0.00122696
0.271938 -0.0492891 0.00122948
0.275062 -0.049281 0.00123201
0.278187 -0.0492729 0.00123454
0.281312 -0.0492648 0.00123708
0.284435 -0.0492612 0.00123935
0.287558 -0.049253 0.00124189
0.290681 -0.0492448 0.00124443
0.293804 -0.0492366 0.00124699
0.296927 -0.0492283 0.00124954
0.30005 -0.0492231 0.00125181
0.303174 -0.0492148 0.00125437
0.306297 -0.0492064 0.00125693
0.309421 -0.0491981 0.00125949
0.312544 -0.0491897 0.00126206
0.315668 -0.049186 0.00126436
0.318793 -0.0491775 0.00126693
0.321917 -0.0491691 0.0012695
0.325041 -0.0491606 0.00127208
0.328166 -0.0491521 0.00127466
0.331291 -0.0491467 0.00127695
0.334416 -0.0491381 0.00127953
0.337541 -0.0491295 0.00128211
0.340666 -0.0491209 0.00128469
0.343791 -0.0491123 0.00128729
0.346916 -0.0491085 0.0012896
0.350042 -0.0490998 0.00129218
0.353168 -0.0490911 0.00129477
0.356294 -0.0490823 0.00129736
0.35942 -0.0490736 0.00129996
0.362549 -0.0490681 0.00130226
0.365679 -0.0490593 0.00130485
0.368808 -0.0490505 0.00130744
0.371938 -0.0490416 0.00131004
0.375068 -0.0490327 0.00131264
0.378205 -0.0490288 0.00131497
0.381343 -0.0490199 0.00131756
0.384481 -0.0490109 0.00132016
0.387619 -0.049002 0.00132277
0.390756 -0.048993 0.00132538
0.393889 -0.0489874 0.00132767
0.397022 -0.0489784 0.00133026
0.400155 -0.0489694 0.00133285
0.403288 -0.0489604 0.00133544
0.406421 -0.0489513 0.00133805
0.409551 -0.0489473 0.00134035
0.412682 -0.0489383 0.00134293
0.415813 -0.0489292 0.00134552
0.418943 -0.0489201 0.0013481
0.422074 -0.0489109 0.0013507
0.425204 -0.0489053 0.00135298
0.428334 -0.0488961 0.00135555
0.431464 -0.0488869 0.00135813
0.434594 -0.0488777 0.00136071
0.437724 -0.0488685 0.00136329
0.440854 -0.0488645 0.00136558
0.443984 -0.0488553 0.00136815
0.447114 -0.048846 0.00137071
0.450244 -0.0488368 0.00137329
0.453374 -0.0488275 0.00137586
0.456504 -0.0488217 0.00137812
0.459634 -0.0488124 0.00138067
0.462763 -0.0488031 0.00138323
0.465893 -0.0487938 0.00138579
0.469023 -0.0487845 0.00138835
0.472152 -0.0487804 0.00139061
0.475282 -0.048771 0.00139315
0.478411 -0.0487617 0.00139569
0.481541 -0.0487523 0.00139824
0.48467 -0.0487429 0.00140079
0.4878 -0.048737 0.00140301
0.490929 -0.0487276 0.00140553
0.494058 -0.0487182 0.00140806
0.497187 -0.0487088 0.00141059
0.500317 -0.0486994 0.00141312
0.503446 -0.0486952 0.00141535
0.506575 -0.0486858 0.00141786
0.509704 -0.0486763 0.00142036
0.512833 -0.0486668 0.00142287
0.515962 -0.0486574 0.00142539
0.519091 -0.0486515 0.00142758
0.52222 -0.048642 0.00143007
0.525348 -0.0486325 0.00143255
0.528477 -0.048623 0.00143504
0.531606 -0.0486135 0.00143754
0.534734 -0.0486093 0.00143973
0.537863 -0.0485998 0.0014422
0.540992 -0.0485903 0.00144466
0.54412 -0.0485807 0.00144713
0.547249 -0.0485712 0.00144961
0.550377 -0.0485652 0.00145176
0.553506 -0.0485557 0.0014542
0.556634 -0.0485462 0.00145664
0.559762 -0.0485366 0.00145909
0.562891 -0.048527 0.00146154
0.566019 -0.0485228 0.00146369
0.569147 -0.0485133 0.00146611
0.572275 -0.0485037 0.00146853
0.575403 -0.0484941 0.00147095
0.578532 -0.0484845 0.00147338
0.58166 -0.0484786 0.00147549
0.584788 -0.048469 0.00147788
0.587915 -0.0484595 0.00148027
0.591043 -0.0484499 0.00148267
0.594171 -0.0484403 0.00148507
0.597299 -0.0484361 0.00148718
0.600427 -0.0484265 0.00148955
0.603555 -0.048417 0.00149193
[...]
POINT_DATA 15209
 FIELD attributes 1
U 3 15209 float
25.0026 	1.89739e-05 	-0.000700639 25.0025 	1.84968e-05 	-0.000707578 25.0023 	1.80196e-05 	-0.000714518 25.0022 	1.75424e-05 	-0.000721458 25.002 	1.70653e-05 	-0.000728398 25.0018 	1.65881e-05 	-0.000735338 25.0046 	5.10402e-05 	-0.0010091 25.0046 	5.09934e-05 	-0.00100817 25.0046 	5.09466e-05 	-0.00100724 25.0045 	5.08998e-05 	-0.00100632 25.0028 	-4.19686e-06 	-0.00112233 25.0075 	0.000155372 	-0.00148299 25.0074 	0.000155162 	-0.00148098 25.0074 	0.000154951 	-0.00147897 25.0074 	0.000154741 	-0.00147697 25.0093 	0.000214647 	-0.00186152 25.0184 	0.000363813 	-0.00306494 25.0183 	0.000363301 	-0.00306063 25.0183 	0.00036279 	-0.00305632 25.0183 	0.000362279 	-0.00305202 25.0109 	-3.94201e-05 	-0.00214932 25.0235 	0.00043794 	-0.00337819 25.0234 	0.000437256 	-0.00337291 25.0234 	0.000436572 	-0.00336763 25.0233 	0.00043589 	-0.00336237 25.0135 	0.000398355 	-0.00261164 25.0295 	0.000560395 	-0.00385271 25.0294 	0.000559389 	-0.00384579 25.0294 	0.000558384 	-0.00383888 25.0293 	0.000557381 	-0.00383198 25.0167 	-8.71472e-05 	-0.0031248 25.0366 	0.000742449 	-0.00432403 25.0366 	0.000740939 	-0.00431523 25.0365 	0.000739432 	-0.00430645 25.0364 	0.000737928 	-0.0042977 25.0204 	0.000823008 	-0.00356674 25.0449 	0.000987674 	-0.00462433 25.0448 	0.000985503 	-0.00461417 25.0447 	0.000983338 	-0.00460403 25.0446 	0.000981177 	-0.00459391 25.0251 	-0.000180849 	-0.00386504 25.0552 	0.0013226 	-0.00488656 25.0551 	0.0013195 	-0.0048751 25.0549 	0.00131641 	-0.00486366 25.0548 	0.00131332 	-0.00485225 25.0302 	0.00158017 	-0.0035997 25.0652 	0.00166201 	-0.00328179 25.0651 	0.00165937 	-0.00327657 25.065 	0.00165673 	-0.00327136 25.0649 	0.0016541 	-0.00326615 25.071 	0.00196462 	-0.00301817 25.1403 	0.00383968 	-0.00525897 25.1401 	0.00383477 	-0.00525224 25.14 	0.00382986 	-0.00524553 25.1398 	0.00382496 	-0.00523882 25.0742 	0.00489613 	-0.00257839 25.1504 	0.00460837 	-0.00399138 25.1502 	0.00460388 	-0.00398748 25.1501 	0.00459938 	-0.00398359 25.1499 	0.0045949 	-0.00397971 25.0795 	0.00240223 	-0.00163923 25.1586 	0.00561813 	-0.00289387 25.1585 	0.00561414 	-0.00289181 25.1584 	0.00561015 	-0.00288976 25.1583 	0.00560617 	-0.0028877 25.0829 	0.00636228 	-0.000592975 25.1658 	0.00678081 	-0.00150799 25.1657 	0.0067783 	-0.00150743 25.1657 	0.00677578 	-0.00150687 25.1656 	0.00677327 	-0.00150631 25.087 	0.00304935 	0.000905843 25.1706 	0.00800499 	0.000330986 25.1706 	0.00800564 	0.000331013 25.1706 	0.00800629 	0.00033104 25.1706 	0.00800694 	0.000331067 25.1734 	0.00932699 	0.00140832 25.3456 	0.0183201 	0.00219489 25.3456 	0.018325 	0.00219548 25.3457 	0.0183299 	0.00219607 25.3458 	0.0183349 	0.00219666 25.1747 	0.0157961 	0.00224312 25.3508 	0.0209243 	0.00386135 25.351 	0.0209341 	0.00386318 25.3512 	0.020944 	0.003865 25.3513 	0.0209539 	0.00386682 25.1778 	0.0113199 	0.00322218 25.3544 	0.0232873 	0.00523553 25.3546 	0.0233021 	0.00523887 25.3549 	0.023317 	0.00524221 25.3551 	0.0233318 	0.00524556 25.1783 	0.0177304 	0.00432736 25.3569 	0.0252313 	0.00627064 25.3572 	0.0252505 	0.00627541 25.3574 	0.0252697 	0.00628019 25.3577 	0.0252889 	0.00628497 25.1803 	0.0129773 	0.0050713 25.358 	0.0270917 	0.00722252 25.3583 	0.0271154 	0.00722883 25.3586 	0.027139 	0.00723514 25.3589 	0.0271627 	0.00724146 25.1797 	0.0196135 	0.00608458 25.3581 	0.0288897 	0.00810876 25.3584 	0.0289179 	0.00811668 25.3588 	0.0289461 	0.00812461 25.3591 	0.0289744 	0.00813255 25.1807 	0.014437 	0.00676523 25.3578 	0.0307299 	0.00898839 25.3582 	0.0307631 	0.00899808 25.3585 	0.0307962 	0.00900777 25.3589 	0.0308294 	0.00901748 25.1798 	0.0216004 	0.00773741 25.3566 	0.0325685 	0.009838 25.357 	0.0326068 	0.00984954 25.3575 	0.032645 	0.00986109 25.3579 	0.0326833 	0.00987266 25.1799 	0.0159154 	0.0084041 25.3546 	0.0344044 	0.0106594 25.3551 	0.0344479 	0.0106729 25.3555 	0.0344914 	0.0106864 25.356 	0.034535 	0.0106999 25.1781 	0.0236297 	0.00931825 25.3518 	0.036246 	0.0114549 25.3523 	0.0362949 	0.0114704 25.3528 	0.0363439 	0.0114858 25.3532 	0.036393 	0.0115013 25.1774 	0.0173858 	0.00996641 25.3481 	0.0380381 	0.0122189 25.3486 	0.0380925 	0.0122364 25.3491 	0.038147 	0.0122539 25.3496 	0.0382016 	0.0122714 25.1747 	0.0256466 	0.0108085 25.3435 	0.0398407 	0.0129576 25.3441 	0.0399007 	0.0129771 25.3446 	0.0399609 	0.0129967 25.3451 	0.0400211 	0.0130163 25.1733 	0.0188454 	0.0114401 25.3384 	0.0416445 	0.0136733 25.339 	0.0417103 	0.0136949 25.3395 	0.0417762 	0.0137165 25.34 	0.0418422 	0.0137382 25.1699 	0.0276832 	0.0122038 25.3327 	0.0434217 	0.0143602 25.3332 	0.0434932 	0.0143838 25.3338 	0.0435648 	0.0144075 25.3343 	0.0436365 	0.0144312 25.1675 	0.0202658 	0.0127866 25.3262 	0.0451913 	0.0150146 25.3267 	0.0452685 	0.0150403 25.3273 	0.0453458 	0.0150659 25.3278 	0.0454232 	0.0150917 25.1639 	0.029708 	0.0134741 25.3191 	0.046952 	0.0156398 25.3197 	0.0470348 	0.0156674 25.3202 	0.0471179 	0.015695 25.3208 	0.047201 	0.0157227 25.1606 	0.021684 	0.0140071 25.3116 	0.0486652 	0.0162378 25.3122 	0.0487537 	0.0162673 25.3127 	0.0488424 	0.0162969 25.3133 	0.0489312 	0.0163265 25.1565 	0.0316821 	0.0146062 25.3035 	0.0503431 	0.0167927 25.304 	0.0504369 	0.016824 25.3046 	0.0505309 	0.0168554 25.3052 	0.0506251 	0.0168868 25.1526 	0.0230482 	0.0150839 25.2947 	0.0519954 	0.0173073 25.2953 	0.0520944 	0.0173403 25.2958 	0.0521935 	0.0173733 25.2964 	0.0522929 	0.0174063 25.148 	0.033574 	0.0155816 25.2856 	0.0536262 	0.0177931 25.2862 	0.0537302 	0.0178276 25.2867 	0.0538344 	0.0178622 25.2873 	0.0539389 	0.0178968 25.1436 	0.0243834 	0.0160161 25.2763 	0.0552611 	0.0182473 25.2769 	0.0553701 	0.0182833 25.2774 	0.0554792 	0.0183194 25.278 	0.0555886 	0.0183555 25.1388 	0.0354603 	0.0164172 25.2667 	0.05684 	0.018662 25.2672 	0.0569535 	0.0186992 25.2677 	0.0570672 	0.0187366 25.2683 	0.0571812 	0.018774 25.1339 	0.0256817 	0.0167991 25.2565 	0.0583322 	0.0190294 25.257 	0.0584498 	0.0190677 25.2575 	0.0585677 	0.0191062 25.258 	0.0586858 	0.0191447 25.1287 	0.0371865 	0.0170908 25.246 	0.0597596 	0.0193518 25.2465 	0.059881 	0.0193911 25.247 	0.0600027 	0.0194305 25.2475 	0.0601246 	0.01947 25.1234 	0.0268491 	0.0174124 25.2354 	0.0611496 	0.0196444 25.2359 	0.0612746 	0.0196846 25.2363 	0.0613998 	0.0197248 25.2368 	0.0615253 	0.0197651 25.1181 	0.0387914 	0.0176124 25.2248 	0.0624991 	0.0199089 25.2252 	0.0626274 	0.0199497 25.2257 	0.0627559 	0.0199907 25.2262 	0.0628846 	0.0200317 25.1128 	0.0279739 	0.0178925 25.2142 	0.0638058 	0.0201486 25.2146 	0.063937 	0.02019 25.2151 	0.0640685 	0.0202316 25.2155 	0.0642003 	0.0202732 25.1074 	0.0403333 	0.0180158 25.2033 	0.0650224 	0.0203458 25.2037 	0.0651561 	0.0203876 25.2042 	0.0652901 	0.0204295 25.2046 	0.0654243 	0.0204715 25.1019 	0.0290025 	0.0182552 25.1921 	0.0661261 	0.0204903 25.1925 	0.0662616 	0.0205323 25.1929 	0.0663974 	0.0205744 25.1933 	0.0665335 	0.0206166 25.0962 	0.0416179 	0.0182695 25.1809 	0.0671533 	0.0205958 25.1813 	0.0672904 	0.0206378 25.1816 	0.0674277 	0.0206799 25.182 	0.0675653 	0.0207221 25.0906 	0.0298416 	0.0184535 25.1698 	0.0681379 	0.0206771 25.1702 	0.0682762 	0.0207191 25.1705 	0.0684148 	0.0207612 25.1709 	0.0685537 	0.0208033 25.0851 	0.0427647 	0.0184015 25.1589 	0.0690818 	0.0207367 25.1593 	0.0692211 	0.0207785 25.1596 	0.0693607 	0.0208204 25.1599 	0.0695006 	0.0208624 25.0796 	0.0306346 	0.0185555 25.1483 	0.0699774 	0.0207739 25.1486 	0.0701175 	0.0208155 25.1489 	0.0702579 	0.0208571 25.1492 	0.0703986 	0.0208989 25.0744 	0.0438213 	0.0184377 25.1377 	0.0708104 	0.0207903 25.138 	0.0709511 	0.0208316 25.1383 	0.0710921 	0.020873 25.1386 	0.0712334 	0.0209145 25.069 	0.0313514 	0.0185683 25.1273 	0.0715029 	0.0207752 25.1275 	0.071644 	0.0208161 25.1278 	0.0717853 	0.0208572 25.128 	0.071927 	0.0208984 25.0638 	0.0446464 	0.0183799 25.117 	0.0721432 	0.0207302 25.1172 	0.0722837 	0.0207706 25.1174 	0.0724245 	0.020811 25.1177 	0.0725655 	0.0208515 25.0586 	0.0318971 	0.0184748 25.1071 	0.0727863 	0.0206813 25.1073 	0.0729263 	0.0207211 25.1075 	0.0730666 	0.020761 25.1077 	0.0732072 	0.0208009 25.0538 	0.0454223 	0.0182534 25.0974 	0.0733909 	0.0206178 25.0976 	0.0735304 	0.020657 25.0978 	0.0736702 	0.0206963 25.098 	0.0738102 	0.0207356 25.0488 	0.0324239 	0.0183275 25.088 	0.0739403 	0.0205375 25.0882 	0.074079 	0.020576 25.0883 	0.074218 	0.0206146 25.0885 	0.0743573 	0.0206533 25.0443 	0.0461078 	0.018069 25.0789 	0.0744311 	0.0204377 25.079 	0.0745689 	0.0204755 25.0792 	0.0747069 	0.0205134 25.0793 	0.0748451 	0.0205514 25.0395 	0.0328549 	0.0181163 25.07 	0.0748654 	0.0203167 25.0701 	0.0750019 	0.0203538 25.0703 	0.0751387 	0.0203909 25.0704 	0.0752757 	0.0204281 25.0353 	0.0466618 	0.0178244 25.0614 	0.07525 	0.020183 25.0615 	0.0753852 	0.0202192 25.0617 	0.0755206 	0.0202555 25.0618 	0.0756563 	0.0202919 25.0308 	0.0331949 	0.0178492 25.0532 	0.0755801 	0.0200366 25.0532 	0.0757138 	0.020072 25.0533 	0.0758476 	0.0201075 25.0534 	0.0759817 	0.0201431 25.0269 	0.0470954 	0.0175362 25.0452 	0.0758515 	0.0198757 25.0453 	0.0759834 	0.0199102 25.0453 	0.0761156 	0.0199449 25.0454 	0.076248 	0.0199795 25.0226 	0.0334425 	0.0175398 25.0375 	0.0760716 	0.019703 25.0376 	0.0762016 	0.0197367 25.0376 	0.076332 	0.0197704 25.0377 	0.0764625 	0.0198042 25.0191 	0.0473974 	0.0172101 25.0302 	0.0762384 	0.0195167 25.0302 	0.0763665 	0.0195495 25.0303 	0.0764948 	0.0195824 25.0303 	0.0766233 	0.0196153 25.0151 	0.0336018 	0.017196 25.0232 	0.0763554 	0.0193232 25.0232 	0.0764814 	0.0193551 25.0232 	0.0766076 	0.019387 25.0233 	0.0767341 	0.019419 25.0119 	0.0475789 	0.0168598 25.0165 	0.0763973 	0.0191203 25.0165 	0.0765211 	0.0191513 25.0165 	0.0766451 	0.0191823 25.0166 	0.0767693 	0.0192134 25.0082 	0.0336606 	0.0168643 25.0104 	0.0764006 	0.0189737 25.0104 	0.0765225 	0.0190039 25.0104 	0.0766446 	0.0190342 25.0105 	0.0767669 	0.0190646 25.0053 	0.0476485 	0.0165704 25.0039 	0.0763913 	0.0188669 25.0039 	0.0765115 	0.0188966 25.004 	0.076632 	0.0189264 25.004 	0.0767527 	0.0189562 25.0018 	0.0336795 	0.0166108 24.9981 	0.0763878 	0.0187698 24.9981 	0.0765066 	0.018799 24.9981 	0.0766255 	0.0188282 24.9981 	0.0767447 	0.0188575 24.9992 	0.0476509 	0.0163199 24.992 	0.0763145 	0.0186245 24.992 	0.0764314 	0.018653 24.992 	0.0765484 	0.0186816 24.992 	0.0766657 	0.0187102 24.996 	0.0336521 	0.0163347 24.9868 	0.0762302 	0.0185216 24.9868 	0.0763455 	0.0185496 24.9867 	0.0764609 	0.0185776 24.9867 	0.0765765 	0.0186057 24.9937 	0.0475863 	0.016067 24.9809 	0.0761272 	0.0184528 24.9808 	0.0762411 	0.0184804 24.9808 	0.0763551 	0.018508 24.9808 	0.0764693 	0.0185357 24.9905 	0.0335876 	0.0160761 24.9756 	0.0760361 	0.0183052 24.9756 	0.0761481 	0.0183322 24.9756 	0.0762603 	0.0183592 24.9755 	0.0763726 	0.0183863 24.9885 	0.0474911 	0.0157657 24.9708 	0.0758924 	0.0180835 24.9708 	0.0760021 	0.0181097 24.9707 	0.0761119 	0.0181359 24.9707 	0.0762219 	0.0181621 24.9857 	0.033482 	0.0156945 24.9662 	0.0757027 	0.0178486 24.9662 	0.07581 	0.0178738 24.9661 	0.0759174 	0.0178992 24.9661 	0.0759988 	0.0179232 24.984 	0.047214 	0.0153812 24.9621 	0.0750096 	0.0176012 24.9622 	0.0748469 	0.0176106 24.9623 	0.0746847 	0.0176199 24.9624 	0.0745231 	0.0176293 24.9814 	0.0333235 	0.0153164 24.9589 	0.0736041 	0.0173387 24.9589 	0.0734469 	0.0173494 24.959 	0.0732903 	0.0173602 24.9591 	0.0731342 	0.017371 24.98 	0.0461978 	0.015037 24.9558 	0.072152 	0.0170585 24.9559 	0.0719967 	0.0170673 24.956 	0.0718419 	0.0170761 24.9561 	0.0716877 	0.0170849 24.9777 	0.0331343 	0.0149702 24.9533 	0.0708055 	0.0168326 24.9534 	0.0706558 	0.0168427 24.9535 	0.0705066 	0.0168527 24.9536 	0.0703579 	0.0168629 24.9764 	0.0451888 	0.0147205 24.9507 	0.0693843 	0.0165659 24.9508 	0.0692366 	0.0165742 24.9509 	0.0690894 	0.0165825 24.951 	0.0689427 	0.0165908 24.9743 	0.0329189 	0.0146521 24.9488 	0.0681045 	0.0163725 24.9489 	0.0679622 	0.0163819 24.949 	0.0678205 	0.0163914 24.9491 	0.0676791 	0.0164009 24.9733 	0.0441975 	0.0144324 24.9468 	0.0667048 	0.0161099 24.9469 	0.0665646 	0.0161178 24.947 	0.0664248 	0.0161257 24.947 	0.0662854 	0.0161336 24.9714 	0.0326785 	0.0143549 24.9454 	0.0654438 	0.015936 24.9455 	0.0652664 	0.0159429 24.9457 	0.0650896 	0.0159498 24.9458 	0.0649133 	0.0159568 24.9706 	0.0431353 	0.0141578 24.9439 	0.0638981 	0.0156664 24.944 	0.0637246 	0.0156717 24.9442 	0.0635516 	0.0156771 24.9443 	0.0633792 	0.0156826 24.9689 	0.0324211 	0.0140739 24.9431 	0.0625682 	0.0155081 24.9432 	0.0624022 	0.0155148 24.9433 	0.0622367 	0.0155216 24.9435 	0.0620717 	0.0155283 24.9682 	0.0420533 	0.0138987 24.942 	0.0610936 	0.0152424 24.9421 	0.0609313 	0.0152477 24.9422 	0.0607694 	0.015253 24.9424 	0.060608 	0.0152583 24.9668 	0.0321592 	0.0138044 24.9415 	0.0598616 	0.0151075 24.9416 	0.0597031 	0.0151139 24.9418 	0.0595451 	0.0151202 24.9419 	0.0593875 	0.0151266 24.9662 	0.0410242 	0.0136484 24.9407 	0.058437 	0.0148389 24.9409 	0.058285 	0.0148441 24.941 	0.0581336 	0.0148493 24.9411 	0.0579826 	0.0148546 24.965 	0.0318964 	0.0135427 24.9406 	0.0572688 	0.0147362 24.9407 	0.0571143 	0.014742 24.9408 	0.0569603 	0.0147478 24.941 	0.0568067 	0.0147536 24.9645 	0.0400547 	0.0133962 24.9402 	0.055859 	0.014398 24.9404 	0.0556519 	0.0144003 24.9406 	0.0554453 	0.0144026 24.9408 	0.0552393 	0.0144049 24.9634 	0.0316685 	0.0132832 24.9407 	0.054343 	0.0145538 24.941 	0.0540798 	0.0145513 24.9413 	0.0538173 	0.0145488 24.9415 	0.0535555 	0.0145464 24.9631 	0.0388974 	0.0131196 24.9412 	0.0528164 	0.0130473 24.9417 	0.0523327 	0.0130573 24.9421 	0.0518505 	0.0130674 24.9426 	0.0513696 	0.0130775 24.9623 	0.0315228 	0.0130088 24.962 	0.0311266 	0.0127401 24.9619 	0.0311832 	0.0127633 24.9618 	0.0312399 	0.0127865 24.9618 	0.0312968 	0.0128097 24.9839 	0.0239802 	0.0133613 24.9611 	0.0310677 	0.0123102 24.961 	0.0311217 	0.0123316 24.961 	0.0311758 	0.0123531 24.9609 	0.03123 	0.0123745 24.9831 	0.00991516 	0.0129672 24.9605 	0.0304752 	0.0125132 24.9604 	0.0305286 	0.0125351 24.9604 	0.0305821 	0.0125571 24.9603 	0.0306357 	0.0125791 24.9831 	0.0237774 	0.0128231 24.9595 	0.0320786 	0.00977858 24.9595 	0.0321222 	0.00979186 24.9594 	0.0321659 	0.00980516 24.9594 	0.0322095 	0.00981848 24.9825 	0.0098392 	0.0124436 24.9821 	0.0095882 	0.0120799 24.982 	0.00962007 	0.0121201 24.982 	0.00965204 	0.0121604 24.9819 	0.00968412 	0.0122008 24.9929 	-0.00217081 	0.0137111 24.9815 	0.00943282 	0.0118171 24.9814 	0.00946297 	0.0118549 24.9814 	0.00949321 	0.0118928 24.9813 	0.00952355 	0.0119308 24.9928 	0.0124653 	0.0133515 24.9812 	0.00932126 	0.0116514 24.9811 	0.00935015 	0.0116876 24.981 	0.00937913 	0.0117238 24.981 	0.0094082 	0.0117601 24.9925 	-0.0021196 	0.0132745 24.9811 	0.00906597 	0.0112212 24.9811 	0.0090926 	0.0112541 24.981 	0.00911932 	0.0112872 24.981 	0.00914611 	0.0113204 24.9926 	0.012386 	0.0129983 24.9815 	0.00956655 	0.0115123 24.9814 	0.00959495 	0.0115465 24.9814 	0.00962344 	0.0115808 24.9813 	0.00965201 	0.0116152 24.9926 	-0.00211628 	0.0128958 24.9818 	0.00693231 	0.00902811 24.9817 	0.00694821 	0.00904882 24.9817 	0.00696415 	0.00906957 24.9816 	0.00698012 	0.00909038 24.9928 	0.0124411 	0.0127393 24.9929 	0.0123721 	0.0125512 24.9928 	0.0124498 	0.01263 24.9928 	0.0125279 	0.0127093 24.9927 	0.0126066 	0.0127891 24.9968 	-0.00116825 	0.0138554 24.9927 	0.0122537 	0.0122103 24.9927 	0.0123261 	0.0122825 24.9926 	0.012399 	0.0123551 24.9926 	0.0124723 	0.0124282 24.997 	0.0147153 	0.012675 24.9932 	0.0129793 	0.0126548 24.9932 	0.0130566 	0.0127301 24.9932 	0.0131344 	0.0128059 24.9931 	0.0132126 	0.0128822 24.9972 	-0.00119946 	0.0136322 24.9945 	0.0103157 	0.0105791 24.9945 	0.0103655 	0.0106303 24.9944 	0.0104156 	0.0106816 24.9944 	0.0104659 	0.0107332 24.9976 	0.015526 	0.0126772 24.9982 	0.0164308 	0.0125568 24.9982 	0.0166135 	0.0126965 24.9981 	0.0167983 	0.0128377 24.9981 	0.0169851 	0.0129805 24.9983 	-0.00085238 	0.015079 24.9977 	0.017536 	0.0124628 24.9977 	0.0177189 	0.0125928 24.9976 	0.0179037 	0.0127241 24.9976 	0.0180904 	0.0128568 24.9981 	0.0189182 	0.00965244 24.9976 	0.0185517 	0.0117774 24.9975 	0.0187258 	0.0118879 24.9975 	0.0189015 	0.0119995 24.9975 	0.0190788 	0.0121121 24.9981 	-0.000961961 	0.0146128 24.999 	0.0160222 	0.0093169 24.999 	0.0161354 	0.00938277 24.999 	0.0162495 	0.00944911 24.999 	0.0163644 	0.00951592 24.9987 	0.0192259 	0.00932363 24.9994 	0.019523 	0.00896751 24.9994 	0.0197778 	0.00908455 24.9994 	0.0200359 	0.00920313 24.9994 	0.0202974 	0.00932324 24.995 	-0.000184568 	0.00921387 24.9989 	0.0205941 	0.00862359 24.9989 	0.0208365 	0.00872506 24.9989 	0.0210817 	0.00882773 24.9989 	0.0213297 	0.00893161 24.9975 	0.00766433 	0.00247278 24.9985 	0.0211475 	0.00841189 24.9984 	0.0213784 	0.00850374 24.9984 	0.0216118 	0.00859659 24.9984 	0.0218478 	0.00869046 24.9952 	-0.00026043 	0.00929613 24.9985 	0.0219527 	0.00941957 24.9984 	0.0222067 	0.00952859 24.9984 	0.0224637 	0.00963886 24.9984 	0.0227237 	0.00975041 24.9973 	0.00787862 	0.00289458 24.9972 	0.00763924 	0.0031247 24.9972 	0.00769488 	0.00314746 24.9971 	0.00775093 	0.00317039 24.9971 	0.00780739 	0.00319348 24.9986 	-8.65533e-06 	0.00185603 24.9973 	0.00716297 	0.0034845 24.9973 	0.00721925 	0.00351188 24.9973 	0.00727597 	0.00353947 24.9973 	0.00733314 	0.00356728 24.9986 	-1.38438e-05 	0.0019796 24.9974 	0.00701442 	0.00363809 24.9974 	0.00706995 	0.00366689 24.9974 	0.00712592 	0.00369592 24.9974 	0.00718233 	0.00372518 24.9986 	-1.59241e-05 	0.00203652 24.9974 	0.00696729 	0.00371966 24.9974 	0.00702169 	0.00374871 24.9974 	0.00707652 	0.00377798 24.9974 	0.00713178 	0.00380749 24.9985 	-1.74491e-05 	0.0020782 24.9974 	0.00694799 	0.00377338 24.9974 	0.00700112 	0.00380223 24.9974 	0.00705466 	0.00383131 24.9974 	0.0071086 	0.0038606 24.9985 	-1.88754e-05 	0.00211449 24.9974 	0.00694507 	0.00380822 24.9974 	0.00699685 	0.00383661 24.9974 	0.00704901 	0.00386521 24.9973 	0.00710156 	0.00389403 24.9985 	-2.00349e-05 	0.00214623 24.9974 	0.00695422 	0.00382855 24.9974 	0.00700461 	0.00385629 24.9973 	0.00705536 	0.00388423 24.9973 	0.00710648 	0.00391237 24.9984 	-2.09328e-05 	0.00217419 24.9974 	0.00697077 	0.00383804 24.9973 	0.00701977 	0.00386502 24.9973 	0.00706911 	0.00389219 24.9973 	0.0071188 	0.00391954 24.9984 	-2.1744e-05 	0.00219988 24.9973 	0.0069937 	0.00384394 24.9973 	0.00704138 	0.00387015 24.9973 	0.00708939 	0.00389654 24.9973 	0.00713773 	0.00392311 24.9984 	-2.24412e-05 	0.00221791 24.9699 	0.00546437 	0.0421045 24.9417 	0.00438873 	0.0815399 24.9134 	0.00379289 	0.121171 24.8849 	0.00368035 	0.160999 24.861 	0.00280645 	0.190829