# vtk DataFile Version 2.0
track0
ASCII
DATASET POLYDATA
POINTS 15209 float
-1.001 -0.05 0.0011
-1.00088 -0.05 0.0011
-1.00076 -0.05 0.00109999
-1.00064 -0.05 0.00109999
-1.00052 -0.05 0.00109999
-1.0004 -0.05 0.00109998
-0.975398 -0.05 0.00109925
-0.9504 -0.0499999 0.00109824
-0.925402 -0.0499999 0.00109723
-0.900404 -0.0499998 0.00109622
-0.875406 -0.0499998 0.00109522
-0.850407 -0.0499998 0.0010941
-0.825407 -0.0499996 0.00109261
-0.800408 -0.0499995 0.00109113
-0.775408 -0.0499993 0.00108965
-0.750409 -0.0499992 0.00108818
-0.737914 -0.0499991 0.00108725
-0.72542 -0.0499989 0.00108572
-0.712925 -0.0499987 0.00108419
-0.700431 -0.0499985 0.00108266
-0.687936 -0.0499983 0.00108114
-0.675431 -0.0499984 0.00108006
-0.662926 -0.0499981 0.00107837
-0.65042 -0.0499979 0.00107669
-0.637915 -0.0499977 0.00107501
-0.62541 -0.0499975 0.00107333
-0.612898 -0.0499973 0.00107202
-0.600387 -0.049997 0.00107009
-0.587876 -0.0499967 0.00106817
-0.575365 -0.0499964 0.00106625
-0.562854 -0.0499962 0.00106434
-0.550338 -0.0499962 0.00106277
-0.537822 -0.0499958 0.00106061
-0.525307 -0.0499955 0.00105846
-0.512791 -0.0499951 0.0010563
-0.500275 -0.0499947 0.00105415
-0.487751 -0.0499943 0.00105237
-0.475226 -0.0499938 0.00105006
-0.462701 -0.0499933 0.00104775
-0.450177 -0.0499928 0.00104545
-0.437652 -0.0499923 0.00104315
-0.42513 -0.0499924 0.00104121
-0.412607 -0.0499918 0.00103877
-0.400084 -0.0499911 0.00103634
-0.387562 -0.0499905 0.0010339
-0.375039 -0.0499898 0.00103148
-0.362534 -0.049989 0.00102968
-0.350028 -0.0499882 0.00102804
-0.337522 -0.0499874 0.00102641
-0.325017 -0.0499865 0.00102478
-0.312511 -0.0499857 0.00102315
-0.306259 -0.0499852 0.00102239
-0.300007 -0.0499843 0.00102109
-0.293755 -0.0499833 0.00101978
-0.287503 -0.0499823 0.00101848
-0.281251 -0.0499814 0.00101717
-0.275 -0.0499802 0.00101653
-0.26875 -0.049979 0.00101554
-0.2625 -0.0499779 0.00101455
-0.25625 -0.0499767 0.00101356
-0.25 -0.0499756 0.00101257
-0.24375 -0.049975 0.00101216
-0.2375 -0.0499736 0.00101144
-0.23125 -0.0499722 0.00101072
-0.225 -0.0499708 0.00101001
-0.21875 -0.0499694 0.00100929
-0.2125 -0.0499678 0.00100914
-0.20625 -0.0499662 0.00100877
-0.2 -0.0499645 0.00100839
-0.19375 -0.0499628 0.00100802
-0.1875 -0.0499611 0.00100764
-0.18125 -0.0499604 0.00100787
-0.175 -0.0499584 0.00100795
-0.16875 -0.0499564 0.00100803
-0.1625 -0.0499544 0.00100811
-0.15625 -0.0499524 0.0010082
-0.153125 -0.0499512 0.00100837
-0.15 -0.049949 0.00100864
-0.146875 -0.0499467 0.00100891
-0.14375 -0.0499445 0.00100918
-0.140625 -0.0499422 0.00100945
-0.1375 -0.0499402 0.00100973
-0.134374 -0.0499377 0.00101021
-0.131249 -0.0499351 0.00101069
-0.128124 -0.0499325 0.00101116
-0.124999 -0.0499299 0.00101164
-0.121874 -0.0499285 0.00101204
-0.118749 -0.0499256 0.00101268
-0.115624 -0.0499228 0.00101333
-0.112499 -0.0499199 0.00101398
-0.109374 -0.049917 0.00101462
-0.106249 -0.0499148 0.00101516
-0.103124 -0.0499117 0.00101593
-0.0999989 -0.0499086 0.00101671
-0.0968739 -0.0499055 0.00101748
-0.0937488 -0.0499024 0.00101825
-0.0906239 -0.0499008 0.00101888
-0.0874989 -0.0498974 0.00101977
-0.0843739 -0.0498941 0.00102066
-0.0812489 -0.0498907 0.00102156
-0.0781239 -0.0498874 0.00102245
-0.0749989 -0.0498849 0.0010232
-0.0718739 -0.0498814 0.0010242
-0.0687489 -0.0498778 0.0010252
-0.0656238 -0.0498743 0.0010262
-0.0624988 -0.0498707 0.00102721
-0.0593738 -0.0498689 0.00102805
-0.0562488 -0.0498651 0.00102915
-0.0531238 -0.0498613 0.00103026
-0.0499988 -0.0498575 0.00103137
-0.0468738 -0.0498537 0.00103248
-0.0437488 -0.049851 0.00103344
-0.0406238 -0.049847 0.00103466
-0.0374988 -0.049843 0.00103587
-0.0343738 -0.049839 0.00103709
-0.0312488 -0.049835 0.0010383
-0.0281239 -0.049833 0.00103935
-0.0249989 -0.0498287 0.00104066
-0.0218739 -0.0498245 0.00104197
-0.018749 -0.0498202 0.00104329
-0.015624 -0.049816 0.00104461
-0.012499 -0.0498131 0.00104577
-0.00937393 -0.0498086 0.00104718
-0.00624889 -0.0498041 0.00104859
-0.00312386 -0.0497996 0.00105001
1.18288e-06 -0.0497952 0.00105143
0.00312621 -0.049793 0.00105266
0.00625124 -0.0497883 0.00105417
0.00937627 -0.0497836 0.00105568
0.0125013 -0.0497789 0.00105719
0.0156263 -0.0497742 0.0010587
0.0187516 -0.049771 0.00106004
0.0218768 -0.0497661 0.00106164
0.025002 -0.0497612 0.00106324
0.0281273 -0.0497563 0.00106484
0.0312525 -0.0497513 0.00106645
0.0343793 -0.049749 0.00106787
0.037506 -0.0497438 0.00106956
0.0406327 -0.0497387 0.00107125
0.0437595 -0.0497335 0.00107294
0.0468862 -0.0497284 0.00107463
0.050011 -0.0497249 0.00107615
0.0531358 -0.0497196 0.00107792
0.0562606 -0.0497142 0.0010797
0.0593853 -0.0497088 0.00108147
0.0625101 -0.0497035 0.00108325
0.065635 -0.0497009 0.00108484
0.0687598 -0.0496954 0.00108669
0.0718846 -0.0496898 0.00108855
0.0750094 -0.0496842 0.00109041
0.0781342 -0.0496786 0.00109227
0.0812601 -0.0496749 0.00109394
0.084386 -0.0496691 0.00109587
0.0875119 -0.0496633 0.00109781
0.0906377 -0.0496575 0.00109975
0.0937636 -0.0496516 0.00110169
0.0968915 -0.0496489 0.00110343
0.100019 -0.0496429 0.00110543
0.103147 -0.0496369 0.00110744
0.106275 -0.0496309 0.00110946
0.109403 -0.0496248 0.00111148
0.112529 -0.0496209 0.00111329
0.115655 -0.0496147 0.00111537
0.118781 -0.0496084 0.00111744
0.121907 -0.0496022 0.00111953
0.125032 -0.0495959 0.00112161
0.128157 -0.0495931 0.00112349
0.131283 -0.0495867 0.00112562
0.134408 -0.0495802 0.00112777
0.137533 -0.0495738 0.00112991
0.140658 -0.0495673 0.00113206
0.143784 -0.0495631 0.001134
0.146909 -0.0495565 0.0011362
0.150035 -0.0495499 0.0011384
0.153161 -0.0495432 0.00114061
0.156287 -0.0495365 0.00114282
0.159413 -0.0495335 0.00114482
0.16254 -0.0495267 0.00114707
0.165667 -0.0495198 0.00114933
0.168794 -0.049513 0.0011516
0.171921 -0.0495061 0.00115387
0.175047 -0.0495017 0.00115591
0.178172 -0.0494947 0.00115822
0.181298 -0.0494876 0.00116053
0.184424 -0.0494805 0.00116285
0.18755 -0.0494735 0.00116517
0.190674 -0.0494703 0.00116726
0.193799 -0.0494631 0.00116962
0.196923 -0.0494558 0.00117198
0.200048 -0.0494486 0.00117434
0.203172 -0.0494413 0.00117671
0.206296 -0.0494367 0.00117883
0.209421 -0.0494293 0.00118123
0.212545 -0.0494219 0.00118363
0.215669 -0.0494145 0.00118603
0.218794 -0.049407 0.00118844
0.221919 -0.0494037 0.00119061
0.225045 -0.0493961 0.00119304
0.22817 -0.0493885 0.00119548
0.231296 -0.0493809 0.00119792
0.234421 -0.0493733 0.00120037
0.237548 -0.0493685 0.00120256
0.240674 -0.0493607 0.00120503
0.2438 -0.049353 0.0012075
0.246927 -0.0493452 0.00120998
0.250053 -0.0493374 0.00121246
0.25318 -0.0493339 0.00121469
0.256307 -0.049326 0.00121719
0.259434 -0.0493181 0.00121969
0.262561 -0.0493101 0.0012222
0.265688 -0.0493022 0.00122471
0.268813 -0.0492971 0.00122696
0.271938 -0.0492891 0.00122948
0.275062 -0.049281 0.00123201
0.278187 -0.0492729 0.00123454
0.281312 -0.0492648 0.00123708
0.284435 -0.0492612 0.00123935
0.287558 -0.049253 0.00124189
0.290681 -0.0492448 0.00124443
0.293804 -0.0492366 0.00124699
0.296927 -0.0492283 0.00124954
0.30005 -0.0492231 0.00125181
0.303174 -0.0492148 0.00125437
0.306297 -0.0492064 0.00125693
0.309421 -0.0491981 0.00125949
0.312544 -0.0491897 0.00126206
0.315668 -0.049186 0.00126436
0.318793 -0.0491775 0.00126693
0.321917 -0.0491691 0.0012695
0.325041 -0.0491606 0.00127208
0.328166 -0.0491521 0.00127466
0.331291 -0.0491467 0.00127695
0.334416 -0.0491381 0.00127953
0.337541 -0.0491295 0.00128211
0.340666 -0.0491209 0.00128469
0.343791 -0.0491123 0.00128729
0.346916 -0.0491085 0.0012896
0.350042 -0.0490998 0.00129218
0.353168 -0.0490911 0.00129477
0.356294 -0.0490823 0.00129736
0.35942 -0.0490736 0.00129996
0.362549 -0.0490681 0.00130226
0.365679 -0.0490593 0.00130485
0.368808 -0.0490505 0.00130744
0.371938 -0.0490416 0.00131004
0.375068 -0.0490327 0.00131264
0.378205 -0.0490288 0.00131497
0.381343 -0.0490199 0.00131756
0.384481 -0.0490109 0.00132016
0.387619 -0.049002 0.00132277
0.390756 -0.048993 0.00132538
0.393889 -0.0489874 0.00132767
0.397022 -0.0489784 0.00133026
0.400155 -0.0489694 0.00133285
0.403288 -0.0489604 0.00133544
0.406421 -0.0489513 0.00133805
0.409551 -0.0489473 0.00134035
0.412682 -0.0489383 0.00134293
0.415813 -0.0489292 0.00134552
0.418943 -0.0489201 0.0013481
0.422074 -0.0489109 0.0013507
0.425204 -0.0489053 0.00135298
0.428334 -0.0488961 0.00135555
0.431464 -0.0488869 0.00135813
0.434594 -0.0488777 0.00136071
0.437724 -0.0488685 0.00136329
0.440854 -0.0488645 0.00136558
0.443984 -0.0488553 0.00136815
0.447114 -0.048846 0.00137071
0.450244 -0.0488368 0.00137329
0.453374 -0.0488275 0.00137586
0.456504 -0.0488217 0.00137812
0.459634 -0.0488124 0.00138067
0.462763 -0.0488031 0.00138323
0.465893 -0.0487938 0.00138579
0.469023 -0.0487845 0.00138835
0.472152 -0.0487804 0.00139061
0.475282 -0.048771 0.00139315
0.478411 -0.0487617 0.00139569
0.481541 -0.0487523 0.00139824
0.48467 -0.0487429 0.00140079
0.4878 -0.048737 0.00140301
0.490929 -0.0487276 0.00140553
0.494058 -0.0487182 0.00140806
0.497187 -0.0487088 0.00141059
0.500317 -0.0486994 0.00141312
0.503446 -0.0486952 0.00141535
0.506575 -0.0486858 0.00141786
0.509704 -0.0486763 0.00142036
0.512833 -0.0486668 0.00142287
0.515962 -0.0486574 0.00142539
0.519091 -0.0486515 0.00142758
0.52222 -0.048642 0.00143007
0.525348 -0.0486325 0.00143255
0.528477 -0.048623 0.00143504
0.531606 -0.0486135 0.00143754
0.534734 -0.0486093 0.00143973
0.537863 -0.0485998 0.0014422
0.540992 -0.0485903 0.00144466
0.54412 -0.0485807 0.00144713
0.547249 -0.0485712 0.00144961
0.550377 -0.0485652 0.00145176
0.553506 -0.0485557 0.0014542
0.556634 -0.0485462 0.00145664
0.559762 -0.0485366 0.00145909
0.562891 -0.048527 0.00146154
0.566019 -0.0485228 0.00146369
0.569147 -0.0485133 0.00146611
0.572275 -0.0485037 0.00146853
0.575403 -0.0484941 0.00147095
0.578532 -0.0484845 0.00147338
0.58166 -0.0484786 0.00147549
0.584788 -0.048469 0.00147788
0.587915 -0.0484595 0.00148027
0.591043 -0.0484499 0.00148267
0.594171 -0.0484403 0.00148507
0.597299 -0.0484361 0.00148718
0.600427 -0.0484265 0.00148955
0.603555 -0.048417 0.00149193
[...]
POINT_DATA 15209
 FIELD attributes 2
p 1 15209 float
-4.94407 -4.94564 -4.94721 -4.94878 -4.95035 -4.95192 -5.46436 -5.97607 -6.49818 -7.02029 -7.5394 -8.43182 -9.32919 -10.2266 -11.122 -11.9751 -12.5515 -13.1414 -13.7312 -14.3211 -14.9791 -15.8114 -16.6355 -17.4596 -18.2837 -19.1046 -20.0609 -21.0148 -21.9687 -22.9225 -23.8824 -25.0496 -26.2077 -27.3659 -28.524 -29.6849 -31.0862 -32.4872 -33.8883 -35.2893 -36.7067 -38.367 -40.0178 -41.6686 -43.3194 -44.9814 -46.8118 -48.643 -50.4743 -52.3055 -54.4441 -55.2694 -56.1294 -57.0924 -58.0554 -59.0365 -59.9347 -60.831 -61.7273 -62.6364 -63.542 -64.2894 -65.0381 -65.7756 -66.513 -67.2535 -67.8846 -68.5236 -69.1627 -69.8081 -70.4626 -70.9941 -71.5259 -72.0393 -72.542 -73.006 -73.1061 -73.2623 -73.4185 -73.5747 -73.7947 -73.9357 -74.0884 -74.2411 -74.3937 -74.5746 -74.6706 -74.7769 -74.8832 -74.9895 -75.1201 -75.1799 -75.2399 -75.2999 -75.3599 -75.4252 -75.437 -75.4512 -75.4653 -75.4794 -75.4976 -75.4662 -75.4343 -75.4025 -75.3706 -75.3397 -75.2629 -75.1862 -75.1094 -75.0327 -74.9569 -74.839 -74.7192 -74.5995 -74.4798 -74.3593 -74.1998 -74.0392 -73.8785 -73.7179 -73.557 -73.3603 -73.1606 -72.9609 -72.7612 -72.5599 -72.3253 -72.0889 -71.8524 -71.616 -71.3792 -71.1124 -70.8421 -70.5718 -70.3014 -70.0294 -69.7299 -69.4284 -69.1269 -68.8254 -68.5235 -68.1979 -67.8683 -67.5387 -67.2091 -66.8776 -66.5249 -66.1701 -65.8152 -65.4604 -65.1052 -64.7321 -64.355 -63.9778 -63.6006 -63.2216 -62.8273 -62.4308 -62.0343 -61.6378 -61.2411 -60.8326 -60.4201 -60.0075 -59.595 -59.1806 -58.757 -58.3313 -57.9056 -57.4798 -57.0538 -56.6217 -56.1856 -55.7496 -55.3135 -54.8758 -54.4343 -53.9907 -53.5472 -53.1036 -52.6599 -52.2154 -51.7671 -51.3188 -50.8705 -50.4208 -49.9722 -49.5216 -49.071 -48.6204 -48.1695 -47.7223 -47.2713 -46.8204 -46.3694 -45.917 -45.4698 -45.0205 -44.5713 -44.122 -43.6725 -43.2302 -42.7845 -42.3387 -41.893 -41.4458 -41.0073 -40.5671 -40.1268 -39.6865 -39.246 -38.8163 -38.3835 -37.9508 -37.518 -37.0841 -36.662 -36.2381 -35.8142 -35.3903 -34.9662 -34.5549 -34.1408 -33.7268 -33.3127 -32.8975 -32.4957 -32.0922 -31.6887 -31.2852 -30.8811 -30.4915 -30.0992 -29.707 -29.3148 -28.9214 -28.5429 -28.1626 -27.7823 -27.4021 -27.0211 -26.6555 -26.2874 -25.9193 -25.5513 -25.182 -24.828 -24.4722 -24.1165 -23.7607 -23.4042 -23.0642 -22.722 -22.3797 -22.0375 -21.6941 -21.3674 -21.0391 -20.7109 -20.3826 -20.0535 -19.7414 -19.4272 -19.1131 -18.7989 -18.4836 -18.1852 -17.8852 -17.5852 -17.2852 -16.9844 -16.7004 -16.4145 -16.1285 -15.8426 -15.5554 -15.2849 -15.0127 -14.7405 -14.4683 -14.195 -13.9383 -13.6796 -13.4208 -13.1621 -12.9021 -12.6583 -12.4128 -12.1673 -11.9218 -11.6751 -11.4443 -11.2116 -10.9788 -10.7461 -10.5118 -10.2932 -10.0727 -9.85227 -9.63179 -9.40996 -9.20333 -8.9946 -8.78587 -8.57714 -8.36689 -8.17108 -7.97297 -7.77485 -7.57673 -7.37711 -7.19142 -7.00281 -6.81421 -6.6256 -6.43527 -6.25919 -6.08309 -5.90699 -5.73089 -5.55514 -5.39285 -5.23153 -5.07021 -4.90889 -4.74845 -4.59878 -4.44888 -4.29898 -4.14907 -3.99904 -3.85836 -3.71635 -3.57435 -3.43235 -3.28951 -3.15668 -3.02444 -2.89219 -2.75995 -2.62846 -2.5082 -2.38986 -2.27153 -2.15319 -2.03595 -1.92876 -1.81971 -1.71065 -1.60159 -1.49007 -1.38755 -1.2821 -1.17664 -1.07119 -0.96288 -0.86476 -0.764502 -0.664244 -0.563984 -0.461851 -0.37026 -0.277075 -0.183891 -0.0907067 0.00382203 0.0885081 0.174556 0.260603 0.346651 0.433938 0.512113 0.591669 0.671225 0.75078 0.831566 0.903928 0.977491 1.05105 1.12462 1.19925 1.26598 1.33378 1.40157 1.46937 1.53814 1.59951 1.66178 1.72406 1.78634 1.84947 1.90569 1.96282 2.01994 2.07707 2.13507 2.18655 2.23878 2.29101 2.34324 2.39619 2.44294 2.49043 2.53791 2.58539 2.63361 2.67599 2.71904 2.76208 2.80513 2.84886 2.88718 2.92621 2.96524 3.00427 3.04405 3.07869 3.11393 3.14917 3.18441 3.22025 3.25116 3.28262 3.31409 3.34555 3.37757 3.40488 3.43266 3.46043 3.4882 3.51653 3.54009 3.56348 3.58687 3.61026 3.63379 3.65264 3.67201 3.69138 3.71074 3.73206 3.74997 3.76877 3.78757 3.80637 3.82502 3.85288 3.8922 3.93009 3.96695 4.00231 4.02686 4.05295 4.07775 4.10098 4.12618 4.13981 4.15238 4.16588 4.18022 4.19622 4.21017 4.23297 4.25479 4.27556 4.30468 4.33667 4.38571 4.44116 4.49661 4.5436 4.56876 4.59204 4.61612 4.6402 4.65942 4.67304 4.68242 4.6918 4.70052 4.70309 4.69178 4.67808 4.6649 4.65172 4.63411 4.59644 4.55474 4.51305 4.46973 4.41919 4.36815 4.33357 4.30216 4.27075 4.24479 4.07312 4.06694 4.05957 4.05221 4.03876 4.05232 4.05422 4.05612 4.06016 4.05216 3.9881 3.9049 3.7853 3.6657 3.53431 3.3002 3.06037 2.82055 2.64369 2.4717 2.2787 2.10789 1.93708 1.72486 1.64829 1.82104 1.98939 2.15773 2.32607 2.31043 2.23385 2.15077 2.06769 1.9846 1.89251 1.58742 1.2874 0.987384 0.687367 0.483257 0.267091 0.0725367 -0.12202 -0.316579 -0.403037 -0.223943 -0.0406977 0.142545 0.325784 0.442753 0.604895 0.773235 0.941575 1.10991 1.26823 1.36703 1.45284 1.53866 1.62447 1.70067 1.64665 1.58084 1.51502 1.4492 1.31115 1.17065 1.02085 0.871045 0.721243 0.592083 0.511208 0.425925 0.340642 0.25536 0.183886 0.17085 0.155175 0.1395 0.123825 0.111452 0.111306 0.109044 0.106782 0.10452 0.103118 0.100608 0.0964195 0.0922305 0.0880418 0.084602 0.0824275 0.0789574 0.0754875 0.0720177 0.0690617 0.0680995 0.0660754 0.0640514 0.0620275 0.0603351 0.0607494 0.060326 0.0599026 0.0594793 0.0594192 0.054202 0.0481503 0.0421293 0.0361396 0.0311327
-4.75547 -4.75703 -4.75858 -4.76014 -4.76169 -4.76324 -5.29171 -5.82016 -6.33502 -6.78898 -7.24293 -8.02797 -8.81313 -9.64534 -10.9215 -12.1583 -12.6252 -13.1266 -13.6279 -14.1293 -14.7908 -15.6227 -16.4226 -17.2225 -18.0225 -18.8142 -19.7911 -20.7449 -21.6988 -22.6526 -23.5911 -24.7505 -25.9278 -27.1051 -28.2824 -29.4735 -30.887 -32.3376 -33.7882 -35.2388 -36.6981 -38.3231 -40.0527 -41.7824 -43.5125 -45.2939 -47.1315 -49.1472 -51.163 -53.1969 -55.6718 -56.5554 -57.4382 -58.4564 -59.3859 -60.3016 -61.3154 -62.3199 -63.24 -64.0547 -64.8569 -65.6847 -66.5112 -67.3124 -68.0534 -68.7889 -69.4868 -70.184 -70.8733 -71.5166 -72.1553 -72.7139 -73.2711 -73.808 -74.3683 -74.9358 -75.0538 -75.2074 -75.3571 -75.5068 -75.7142 -75.8491 -75.9955 -76.142 -76.296 -76.4817 -76.5903 -76.6971 -76.798 -76.8989 -77.0124 -77.0667 -77.1233 -77.18 -77.2397 -77.3064 -77.3169 -77.3296 -77.3416 -77.3537 -77.3699 -77.3357 -77.3036 -77.2715 -77.2395 -77.209 -77.1273 -77.0472 -76.9684 -76.8896 -76.8122 -76.687 -76.5636 -76.4402 -76.3141 -76.1876 -76.0162 -75.8467 -75.6813 -75.5158 -75.351 -75.1445 -74.9392 -74.734 -74.5231 -74.3113 -74.0598 -73.8096 -73.5665 -73.3234 -73.0805 -72.8213 -72.5627 -72.3041 -72.039 -71.7875 -71.7644 -71.7412 -71.7181 -71.695 -71.6719 -71.3506 -71.0295 -70.7185 -70.4078 -70.0972 -69.7569 -69.4175 -69.0768 -68.7265 -68.3779 -68.0005 -67.6239 -67.256 -66.8907 -66.526 -66.1353 -65.7475 -65.3554 -64.9555 -64.5593 -64.1383 -63.719 -63.3059 -62.8984 -62.4923 -62.0633 -61.6396 -61.2086 -60.7728 -60.3432 -59.8916 -59.4432 -58.9977 -58.5608 -58.1265 -57.6713 -57.2243 -56.767 -56.3082 -55.8586 -55.3879 -54.9223 -54.4568 -54.0018 -53.5517 -53.0808 -52.6195 -52.1489 -51.6783 -51.2201 -50.7405 -50.2686 -49.7967 -49.3311 -48.876 -48.3993 -47.9329 -47.461 -46.9891 -46.5329 -46.0538 -45.5851 -45.1164 -44.6503 -44.2002 -43.7265 -43.2639 -42.7994 -42.3349 -41.8893 -41.4186 -40.9608 -40.503 -40.0453 -39.6073 -39.1444 -38.6955 -38.2467 -37.7979 -37.3655 -36.9144 -36.4754 -36.0364 -35.5972 -35.1698 -34.7315 -34.3028 -33.8743 -33.4459 -33.0261 -32.6025 -32.1856 -31.7687 -31.3513 -30.9379 -30.5283 -30.1232 -29.7185 -29.3137 -28.91 -28.8083 -28.7074 -28.6065 -28.5055 -28.4048 -28.1132 -27.8216 -27.5299 -27.2374 -26.9452 -26.5628 -26.1824 -25.8025 -25.4226 -25.0435 -24.6746 -24.3088 -23.9429 -23.5764 -23.2112 -22.8549 -22.503 -22.1518 -21.8005 -21.4511 -21.1086 -20.772 -20.4353 -20.0978 -19.7634 -19.4344 -19.1118 -18.7899 -18.4681 -18.1493 -17.8351 -17.5273 -17.2204 -16.9135 -16.6098 -16.3111 -16.0166 -15.7243 -15.4334 -15.1444 -14.8604 -14.5795 -14.3016 -14.0252 -13.7504 -13.4809 -13.2131 -12.9493 -12.688 -12.4276 -12.172 -11.917 -11.6669 -11.4198 -11.1731 -10.9315 -10.6899 -10.4534 -10.2206 -9.98779 -9.75936 -9.53094 -9.30732 -9.08733 -8.86734 -8.65235 -8.43736 -8.22663 -8.01998 -7.81333 -7.61082 -7.4083 -7.20988 -7.01521 -6.82054 -6.63074 -6.44094 -6.25473 -6.07222 -5.88972 -5.71127 -5.53281 -5.35825 -5.187 -5.01575 -4.84924 -4.68317 -4.52016 -4.36009 -4.20063 -4.04465 -3.88978 -3.73766 -3.58752 -3.43841 -3.29342 -3.14992 -3.0081 -2.86783 -2.72933 -2.59358 -2.46013 -2.3281 -2.19695 -2.06769 -1.94189 -1.81865 -1.69603 -1.57378 -1.45442 -1.33707 -1.22314 -1.10942 -0.995764 -0.884578 -0.776545 -0.671064 -0.565638 -0.460229 -0.356964 -0.256539 -0.158842 -0.0611206 0.0367407 0.133225 0.225711 0.31642 0.406975 0.49751 0.586924 0.672209 0.755834 0.839462 0.92323 1.00634 1.08427 1.16141 1.23842 1.31543 1.39215 1.44133 1.49013 1.53894 1.58773 1.63709 1.65931 1.68154 1.70376 1.72599 1.74775 1.81404 1.87992 1.94563 2.01133 2.07526 2.13706 2.19736 2.25766 2.31808 2.37527 2.43344 2.48877 2.54397 2.59917 2.65003 2.70409 2.75445 2.8048 2.85533 2.8999 2.95082 2.99674 3.04242 3.08811 3.12716 3.17424 3.21559 3.25694 3.29849 3.33167 3.37643 3.414 3.45142 3.4882 3.5174 3.5579 3.59272 3.6266 3.65867 3.68401 3.72173 3.75453 3.78522 3.81306 3.83591 3.8699 3.89974 3.92687 3.95087 3.96998 4.00152 4.02789 4.05198 4.07365 4.09016 4.1188 4.14248 4.1641 4.18322 4.19717 4.22781 4.24734 4.26265 4.27498 4.27664 4.31327 4.34034 4.36898 4.40136 4.42412 4.45915 4.48542 4.51169 4.53836 4.56038 4.59154 4.61384 4.63481 4.65578 4.67302 4.69063 4.70344 4.71626 4.72907 4.74385 4.77322 4.80258 4.80802 4.77361 4.7392 4.83085 4.92249 4.94697 4.90512 4.86325 4.93583 5.00842 5.01517 4.95375 4.89234 4.95706 5.02177 5.011 4.92476 4.83851 4.87583 4.91316 4.88291 4.7828 4.68271 4.75245 4.8222 4.77802 4.6279 4.47777 4.38646 4.31044 4.25348 4.19652 4.11562 4.25029 4.26381 4.27717 4.29054 4.17444 4.22419 4.11452 4.00486 3.90152 3.70266 3.54397 3.35615 3.15863 2.96111 2.7561 2.31347 1.91063 1.55734 1.35427 1.33161 1.54545 1.70913 1.97622 2.37488 2.60607 2.73264 2.75852 2.7416 2.66401 2.50413 2.16409 1.87088 1.58167 1.2938 1.06256 0.700458 0.522444 -0.0335585 -0.519415 -0.630099 -0.479565 -0.298631 -0.117726 0.0299591 0.124816 0.201968 0.250077 0.410305 0.570492 0.678828 0.825004 0.902081 0.979122 1.06274 1.08875 1.06327 0.98511 0.906727 0.996556 1.05619 1.0714 0.920937 0.770133 0.619329 0.450585 0.450067 0.366173 0.280396 0.194618 0.103028 0.121581 0.106888 0.0908549 0.0748215 0.0535535 0.0719325 0.0704982 0.0679564 0.0654141 0.0583184 0.0695135 0.0662161 0.0618159 0.0574153 0.049724 0.0570452 0.0543711 0.0507389 0.0471063 0.0411134 0.0472892 0.0460096 0.0438582 0.0417064 0.0377496 0.0440801 0.0444347 0.0439149 0.0433949 0.0416122 0.0477973 0.0437685 0.0376362 0.0314942 0.0245769
-4.56291 -4.56441 -4.56591 -4.56741 -4.56891 -4.57041 -5.08457 -5.5574 -6.03028 -6.50125 -6.95964 -7.76801 -8.64979 -9.53158 -10.3559 -11.4962 -12.0007 -12.5187 -13.0366 -13.5462 -14.1441 -14.9571 -15.7384 -16.4924 -17.2466 -17.9934 -18.9663 -19.9157 -20.8651 -21.8187 -22.7604 -23.9577 -25.1496 -26.3692 -27.5889 -28.801 -30.2955 -31.8697 -33.4442 -34.9238 -36.4677 -38.2878 -40.0594 -42.0147 -43.9683 -45.8519 -47.9157 -50.2152 -52.5223 -54.8169 -57.6075 -58.5098 -59.4501 -60.3862 -61.2794 -62.4789 -63.6085 -64.655 -65.6807 -66.7095 -67.7955 -68.7927 -69.7054 -70.6147 -71.5375 -72.5379 -73.3903 -74.1824 -74.9669 -75.7538 -76.6037 -77.3032 -77.9163 -78.5298 -79.2858 -79.9892 -80.1373 -80.3237 -80.5081 -80.688 -80.92 -81.0837 -81.2701 -81.451 -81.6287 -81.8305 -81.959 -82.0905 -82.2266 -82.3681 -82.513 -82.5969 -82.6822 -82.7648 -82.8444 -82.9271 -82.9452 -82.9659 -82.9882 -83.0117 -83.0368 -83.0093 -82.9814 -82.9543 -82.9286 -82.9039 -82.8208 -82.7398 -82.6539 -82.5668 -82.4809 -82.3393 -82.197 -82.0556 -81.9239 -81.7926 -81.6113 -81.4317 -81.2398 -81.0482 -80.8582 -80.6175 -80.376 -80.1347 -79.908 -79.6853 -79.4198 -79.1493 -78.8676 -78.5862 -78.3054 -78.1543 -78.0032 -77.8522 -77.7012 -77.5548 -77.383 -77.2112 -77.0441 -76.8806 -76.717 -76.3788 -76.0251 -75.6655 -75.3061 -74.9483 -74.557 -74.1658 -73.7747 -73.3839 -73.0115 -72.6074 -72.1865 -71.7658 -71.3453 -70.9286 -70.4849 -70.0411 -69.5974 -69.154 -68.7174 -68.255 -67.79 -67.326 -66.8622 -66.4002 -66.2353 -66.0704 -65.9054 -65.7406 -65.5801 -65.2644 -64.9488 -64.6332 -64.3177 -64.0017 -63.5034 -63.0108 -62.5184 -62.0261 -61.533 -61.0205 -60.5196 -60.0188 -59.5181 -59.0103 -58.4803 -57.9716 -57.4631 -56.9547 -56.4462 -55.9201 -55.4095 -54.899 -54.38 -53.8598 -53.3219 -52.798 -52.2855 -51.7732 -51.2609 -50.7325 -50.2221 -49.7116 -49.1791 -48.6642 -48.1329 -47.6062 -47.0952 -46.5883 -46.0827 -45.5631 -45.0638 -44.5528 -44.0319 -43.5323 -43.0174 -42.5074 -41.9987 -41.5065 -41.0155 -40.5113 -40.0246 -39.5234 -39.0241 -38.5445 -38.0512 -37.5633 -37.0762 -36.5946 -36.1265 -35.6468 -35.1728 -34.6998 -34.2268 -33.7712 -33.3064 -32.8479 -32.3894 -31.9302 -31.4797 -31.0315 -30.5869 -30.143 -29.699 -29.257 -29.1417 -29.0272 -28.9127 -28.7983 -28.6841 -28.369 -28.0539 -27.7387 -27.4222 -27.1076 -26.6878 -26.2737 -25.8605 -25.4473 -25.0375 -24.6293 -24.2328 -23.8364 -23.439 -23.0487 -22.6531 -22.2707 -21.8913 -21.514 -21.141 -20.7634 -20.3926 -20.0303 -19.673 -19.318 -18.9583 -18.6006 -18.2562 -17.9176 -17.5804 -17.2389 -16.8994 -16.5698 -16.2486 -15.929 -15.6054 -15.2823 -14.9681 -14.6655 -14.3632 -14.0569 -13.7516 -13.4545 -13.1659 -12.88 -12.5904 -12.3054 -12.025 -11.7477 -11.4781 -11.2043 -10.938 -10.6738 -10.4097 -10.155 -9.89936 -9.65121 -9.40287 -9.15388 -8.91042 -8.67279 -8.43916 -8.20606 -7.97317 -7.74124 -7.68529 -7.63019 -7.57508 -7.51998 -7.46474 -7.30038 -7.13594 -6.97107 -6.8062 -6.64397 -6.43493 -6.22864 -6.02269 -5.81701 -5.61752 -5.41847 -5.22637 -5.03404 -4.84146 -4.65847 -4.47081 -4.29047 -4.11122 -3.93526 -3.76643 -3.59095 -3.41976 -3.25289 -3.09212 -2.93475 -2.77218 -2.6103 -2.45518 -2.3101 -2.16516 -2.01312 -1.86105 -1.71758 -1.5827 -1.44784 -1.30743 -1.16703 -1.03489 -0.911376 -0.787878 -0.657066 -0.52626 -0.405175 -0.290094 -0.175505 -0.0552985 0.061937 0.173243 0.280538 0.384473 0.496372 0.601845 0.703966 0.805038 0.901055 1.00313 1.09704 1.19068 1.28432 1.37269 1.46502 1.55086 1.63669 1.72263 1.80625 1.88785 1.96642 2.04493 2.12343 2.20156 2.21336 2.22468 2.23601 2.24734 2.25869 2.32002 2.38135 2.44267 2.50409 2.56286 2.63129 2.69771 2.76398 2.83025 2.89159 2.95518 3.01542 3.07565 3.13601 3.18795 3.24848 3.30338 3.35801 3.41095 3.45772 3.51175 3.56289 3.61195 3.65698 3.69744 3.74756 3.79303 3.8367 3.87776 3.91443 3.95838 3.99911 4.03782 4.07267 4.10375 4.14438 4.179 4.21252 4.24536 4.27319 4.30856 4.34034 4.36909 4.3962 4.41912 4.45185 4.47784 4.50248 4.52815 4.54852 4.5765 4.59979 4.62102 4.64186 4.65831 4.68431 4.70285 4.72093 4.73924 4.75316 4.77454 4.7894 4.80402 4.81863 4.82963 4.84728 4.85865 4.87001 4.88138 4.89099 4.90309 4.91006 4.91703 4.924 4.92995 4.95387 4.97878 4.99502 5.00499 5.01258 5.03664 5.05561 5.06696 5.07724 5.08239 5.09383 5.09667 5.0995 5.10743 5.11145 5.11698 5.11687 5.11368 5.1105 5.10348 5.07988 5.0194 4.98974 4.98396 4.96964 5.00194 5.01433 5.02523 5.03452 5.0409 5.04348 5.04215 5.04082 5.03949 5.03816 5.03917 5.04021 5.04371 5.04721 5.02536 5.02904 5.01192 4.99239 4.97101 4.90263 4.90154 4.86072 4.82283 4.78941 4.67979 4.69084 4.6567 4.61108 4.5524 4.41983 4.28588 4.222 4.15629 4.07363 3.90849 4.23241 4.31077 4.35378 4.362 4.15786 4.32667 4.23131 4.10517 3.958 3.55985 3.60161 3.24089 2.8802 2.52583 2.0979 1.74459 1.55439 1.36423 1.17412 1.05104 1.06585 1.07367 1.08149 1.09053 1.13788 1.50227 1.86685 2.23161 2.59657 2.59649 3.20673 3.2886 3.33022 3.26969 2.58573 2.91588 2.59534 2.2751 1.95517 1.28578 0.490644 -0.21338 -0.463312 -0.712136 -0.845023 -0.692967 -0.533412 -0.411529 -0.289575 -0.194659 -0.131896 -0.143517 -0.155129 -0.10519 0.00117878 0.132203 0.207803 0.28598 0.364698 0.389496 0.345872 0.436903 0.548251 0.661815 0.723772 0.735729 0.721217 0.585289 0.433694 0.265291 0.263241 0.250533 0.176222 0.0899943 -0.0016939 0.0159719 0.0269026 0.0162973 -5.06165e-05 -0.0213338 -0.00359349 0.0088705 0.0100406 0.00725924 0.000167932 0.0109018 0.0177758 0.0167211 0.0121376 0.00442549 0.0114169 0.0156358 0.0147125 0.0109363 0.0049054 0.0108364 0.0146522 0.0148538 0.0125887 0.00859039 0.0147427 0.019375 0.0211486 0.0205414 0.0187152 0.0247694 0.0296292 0.0290128 0.0228514 0.0159406