# vtk DataFile Version 2.0
track0
ASCII
DATASET POLYDATA
POINTS 15780 float
-1.001 -0.05 0.0011
-1.0008 -0.05 0.0011
-1.0006 -0.05 0.0011
-1.0004 -0.05 0.0011
-1.0002 -0.05 0.0011
-1 -0.05 0.0011
-0.9875 -0.05 0.0011
-0.975 -0.05 0.0011
-0.9625 -0.05 0.0011
-0.95 -0.05 0.0011
-0.9375 -0.05 0.00109999
-0.925 -0.05 0.00109999
-0.9125 -0.05 0.00109999
-0.9 -0.05 0.00109999
-0.8875 -0.05 0.00109999
-0.875 -0.05 0.00109999
-0.8625 -0.05 0.00109999
-0.85 -0.05 0.00109999
-0.8375 -0.05 0.00109998
-0.825 -0.0500001 0.00109998
-0.8125 -0.0500001 0.00109998
-0.8 -0.0500001 0.00109998
-0.7875 -0.0500001 0.00109998
-0.775 -0.0500001 0.00109998
-0.7625 -0.0500001 0.00109998
-0.75 -0.0500001 0.00109998
-0.7375 -0.0500001 0.00109997
-0.725 -0.0500001 0.00109997
-0.7125 -0.0500001 0.00109997
-0.7 -0.0500001 0.00109997
-0.6875 -0.0500001 0.00109997
-0.675 -0.0500001 0.00109997
-0.6625 -0.0500001 0.00109997
-0.65 -0.0500001 0.00109996
-0.6375 -0.0500001 0.00109996
-0.625 -0.0500001 0.00109996
-0.6125 -0.0500001 0.00109996
-0.6 -0.0500001 0.00109996
-0.5875 -0.0500001 0.00109996
-0.575 -0.0500001 0.00109996
-0.5625 -0.0500001 0.00109996
-0.55 -0.0500001 0.00109995
-0.5375 -0.0500001 0.00109995
-0.525 -0.0500001 0.00109995
-0.5125 -0.0500001 0.00109995
-0.5 -0.0500001 0.00109995
-0.4875 -0.0500001 0.00109995
-0.475 -0.0500001 0.00109995
-0.4625 -0.0500001 0.00109994
-0.45 -0.0500002 0.00109994
-0.4375 -0.0500002 0.00109994
-0.425 -0.0500002 0.00109994
-0.4125 -0.0500002 0.00109994
-0.4 -0.0500002 0.00109994
-0.3875 -0.0500002 0.00109994
-0.375 -0.0500002 0.00109994
-0.3625 -0.0500002 0.00109993
-0.35 -0.0500002 0.00109993
-0.3375 -0.0500002 0.00109993
-0.325 -0.0500002 0.00109993
-0.3125 -0.0500002 0.00109993
-0.3 -0.0500002 0.00109993
-0.2875 -0.0500002 0.00109993
-0.275 -0.0500002 0.00109993
-0.2625 -0.0500002 0.00109992
-0.25 -0.0500002 0.00109992
-0.2375 -0.0500002 0.00109992
-0.225 -0.0500002 0.00109992
-0.2125 -0.0500002 0.00109992
-0.2 -0.0500002 0.00109992
-0.1875 -0.0500002 0.00109992
-0.175 -0.0500002 0.00109992
-0.1625 -0.0500002 0.00109991
-0.15 -0.0500002 0.00109991
-0.1375 -0.0500002 0.00109991
-0.125 -0.0500002 0.00109991
-0.1125 -0.0500002 0.00109991
-0.1 -0.0500002 0.00109991
-0.0875 -0.0500002 0.00109991
-0.075 -0.0500002 0.00109991
-0.0625 -0.0500002 0.00109991
-0.05 -0.0500003 0.00109991
-0.0375 -0.0500003 0.0010999
-0.025 -0.0500003 0.0010999
-0.0125 -0.0500003 0.0010999
2.10607e-13 -0.0500003 0.0010999
0.0125 -0.0500003 0.0010999
0.025 -0.0500003 0.0010999
0.0375 -0.0500003 0.0010999
0.05 -0.0500003 0.0010999
0.0625 -0.0500003 0.0010999
0.075 -0.0500003 0.0010999
0.0875 -0.0500003 0.0010999
0.1 -0.0500003 0.00109989
0.1125 -0.0500003 0.00109989
0.125 -0.0500003 0.00109989
0.1375 -0.0500003 0.00109989
0.15 -0.0500003 0.00109989
0.1625 -0.0500003 0.00109989
0.175 -0.0500003 0.00109989
0.1875 -0.0500003 0.00109989
0.2 -0.0500003 0.00109989
0.2125 -0.0500003 0.00109989
0.225 -0.0500003 0.00109989
0.2375 -0.0500003 0.00109989
0.25 -0.0500003 0.00109989
0.2625 -0.0500003 0.00109988
0.275 -0.0500003 0.00109988
0.2875 -0.0500003 0.00109988
0.3 -0.0500003 0.00109988
0.3125 -0.0500003 0.00109988
0.325 -0.0500003 0.00109988
0.3375 -0.0500003 0.00109988
0.35 -0.0500003 0.00109988
0.3625 -0.0500003 0.00109988
0.375 -0.0500003 0.00109988
0.3875 -0.0500003 0.00109988
0.4 -0.0500004 0.00109988
0.4125 -0.0500004 0.00109988
0.425 -0.0500004 0.00109988
0.4375 -0.0500004 0.00109988
0.45 -0.0500004 0.00109988
0.4625 -0.0500004 0.00109988
0.475 -0.0500004 0.00109988
0.4875 -0.0500004 0.00109988
0.5 -0.0500004 0.00109988
0.5125 -0.0500004 0.00109988
0.525 -0.0500004 0.00109988
0.5375 -0.0500004 0.00109988
0.55 -0.0500004 0.00109988
0.5625 -0.0500004 0.00109988
0.575 -0.0500004 0.00109987
0.5875 -0.0500004 0.00109987
0.6 -0.0500004 0.00109987
0.6125 -0.0500004 0.00109987
0.625 -0.0500004 0.00109987
0.6375 -0.0500004 0.00109987
0.65 -0.0500004 0.00109987
0.6625 -0.0500004 0.00109987
0.675 -0.0500004 0.00109987
0.6875 -0.0500004 0.00109987
0.7 -0.0500004 0.00109987
0.7125 -0.0500004 0.00109987
0.725 -0.0500004 0.00109987
0.7375 -0.0500004 0.00109987
0.75 -0.0500004 0.00109987
0.7625 -0.0500004 0.00109987
0.775 -0.0500004 0.00109987
0.7875 -0.0500004 0.00109987
0.8 -0.0500004 0.00109987
0.8125 -0.0500004 0.00109987
0.825 -0.0500004 0.00109987
0.8375 -0.0500004 0.00109987
0.85 -0.0500004 0.00109987
0.8625 -0.0500004 0.00109987
0.875 -0.0500004 0.00109987
0.8875 -0.0500004 0.00109987
0.9 -0.0500004 0.00109987
0.9125 -0.0500005 0.00109988
0.925 -0.0500005 0.00109988
0.9375 -0.0500005 0.00109988
0.95 -0.0500005 0.00109988
0.9625 -0.0500005 0.00109988
0.975 -0.0500005 0.00109988
0.9875 -0.0500005 0.00109988
1 -0.0500005 0.00109988
1.0125 -0.0500005 0.00109988
1.025 -0.0500005 0.00109988
1.0375 -0.0500005 0.00109988
1.05 -0.0500005 0.00109988
1.0625 -0.0500005 0.00109988
1.075 -0.0500005 0.00109988
1.0875 -0.0500005 0.00109988
1.1 -0.0500005 0.00109988
1.1125 -0.0500005 0.00109988
1.125 -0.0500005 0.00109988
1.1375 -0.0500005 0.00109988
1.15 -0.0500005 0.00109988
1.1625 -0.0500005 0.00109988
1.175 -0.0500005 0.00109988
1.1875 -0.0500005 0.00109988
1.2 -0.0500005 0.00109988
1.2125 -0.0500005 0.00109988
1.225 -0.0500005 0.00109988
1.2375 -0.0500005 0.00109989
1.25 -0.0500005 0.00109989
1.2625 -0.0500005 0.00109989
1.275 -0.0500005 0.00109989
1.2875 -0.0500005 0.00109989
1.3 -0.0500005 0.00109989
1.3125 -0.0500005 0.00109989
1.325 -0.0500005 0.00109989
1.3375 -0.0500005 0.00109989
1.35 -0.0500005 0.00109989
1.3625 -0.0500005 0.00109989
1.375 -0.0500005 0.00109989
1.3875 -0.0500005 0.00109989
1.4 -0.0500005 0.00109989
1.4125 -0.0500005 0.00109989
1.425 -0.0500005 0.00109989
1.4375 -0.0500005 0.0010999
1.45 -0.0500005 0.0010999
1.4625 -0.0500005 0.0010999
1.475 -0.0500005 0.0010999
1.4875 -0.0500005 0.0010999
1.5 -0.0500006 0.0010999
1.5125 -0.0500006 0.0010999
1.525 -0.0500006 0.0010999
1.5375 -0.0500006 0.0010999
1.55 -0.0500006 0.0010999
1.5625 -0.0500006 0.0010999
1.575 -0.0500006 0.0010999
1.5875 -0.0500006 0.0010999
1.6 -0.0500006 0.0010999
1.6125 -0.0500006 0.00109991
1.625 -0.0500006 0.00109991
1.6375 -0.0500006 0.00109991
1.65 -0.0500006 0.00109991
1.6625 -0.0500006 0.00109991
1.675 -0.0500006 0.00109991
1.6875 -0.0500006 0.00109991
1.7 -0.0500006 0.00109991
1.7125 -0.0500006 0.00109991
1.725 -0.0500006 0.00109991
1.7375 -0.0500006 0.00109991
1.75 -0.0500006 0.00109991
1.7625 -0.0500006 0.00109992
1.775 -0.0500006 0.00109992
1.7875 -0.0500006 0.00109992
1.8 -0.0500006 0.00109992
1.8125 -0.0500006 0.00109992
1.825 -0.0500006 0.00109992
1.8375 -0.0500006 0.00109992
1.85 -0.0500006 0.00109992
1.8625 -0.0500006 0.00109992
1.875 -0.0500006 0.00109992
1.8875 -0.0500006 0.00109992
1.9 -0.0500006 0.00109992
1.9125 -0.0500006 0.00109993
1.925 -0.0500006 0.00109993
1.9375 -0.0500006 0.00109993
1.95 -0.0500006 0.00109993
1.9625 -0.0500006 0.00109993
1.975 -0.0500006 0.00109993
1.9875 -0.0500006 0.00109993
2 -0.0500006 0.00109993
2.0125 -0.0500006 0.00109993
2.025 -0.0500006 0.00109993
2.0375 -0.0500006 0.00109993
2.05 -0.0500006 0.00109993
2.0625 -0.0500006 0.00109994
2.075 -0.0500006 0.00109994
2.0875 -0.0500006 0.00109994
2.1 -0.0500006 0.00109994
2.1125 -0.0500006 0.00109994
2.125 -0.0500006 0.00109994
2.1375 -0.0500006 0.00109994
2.15 -0.0500006 0.00109994
2.1625 -0.0500006 0.00109994
2.175 -0.0500007 0.00109994
2.1875 -0.0500007 0.00109994
2.2 -0.0500007 0.00109994
2.2125 -0.0500007 0.00109994
2.225 -0.0500007 0.00109995
2.2375 -0.0500007 0.00109995
2.25 -0.0500007 0.00109995
2.2625 -0.0500007 0.00109995
2.275 -0.0500007 0.00109995
2.2875 -0.0500007 0.00109995
2.3 -0.0500007 0.00109995
2.3125 -0.0500007 0.00109995
2.325 -0.0500007 0.00109995
2.3375 -0.0500007 0.00109995
2.35 -0.0500007 0.00109995
2.3625 -0.0500007 0.00109995
2.375 -0.0500007 0.00109995
2.3875 -0.0500007 0.00109996
2.4 -0.0500007 0.00109996
2.4125 -0.0500007 0.00109996
2.425 -0.0500007 0.00109996
2.4375 -0.0500007 0.00109996
2.45 -0.0500007 0.00109996
2.4625 -0.0500007 0.00109996
2.475 -0.0500007 0.00109996
2.4875 -0.0500007 0.00109996
2.5 -0.0500007 0.00109996
2.5125 -0.0500007 0.00109996
2.525 -0.0500007 0.00109996
2.5375 -0.0500007 0.00109996
2.55 -0.0500007 0.00109996
2.5625 -0.0500007 0.00109997
2.575 -0.0500007 0.00109997
2.5875 -0.0500007 0.00109997
2.6 -0.0500007 0.00109997
2.6125 -0.0500007 0.00109997
2.625 -0.0500007 0.00109997
2.6375 -0.0500007 0.00109997
2.65 -0.0500007 0.00109997
2.6625 -0.0500007 0.00109997
2.675 -0.0500007 0.00109997
2.6875 -0.0500007 0.00109997
2.7 -0.0500007 0.00109997
2.7125 -0.0500007 0.00109997
2.725 -0.0500007 0.00109997
2.7375 -0.0500007 0.00109997
2.75 -0.0500007 0.00109997
2.7625 -0.0500007 0.00109998
2.775 -0.0500007 0.00109998
2.7875 -0.0500007 0.00109998
2.8 -0.0500007 0.00109998
2.8125 -0.0500007 0.00109998
2.825 -0.0500007 0.00109998
2.8375 -0.0500007 0.00109998
2.85 -0.0500007 0.00109998
2.8625 -0.0500008 0.00109998
2.875 -0.0500008 0.00109998
2.8875 -0.0500008 0.00109998
2.9 -0.0500008 0.00109998
2.9125 -0.0500008 0.00109998
2.925 -0.0500008 0.00109998
2.9375 -0.0500008 0.00109998
2.95 -0.0500008 0.00109998
2.9625 -0.0500008 0.00109998
2.975 -0.0500008 0.00109998
2.9875 -0.0500008 0.00109998
3 -0.0500008 0.00109998
3.0125 -0.0500008 0.00109999
3.025 -0.0500008 0.00109999
3.0375 -0.0500008 0.00109999
3.05 -0.0500008 0.00109999
3.0625 -0.0500008 0.00109999
3.075 -0.0500008 0.00109999
3.0875 -0.0500008 0.00109999
3.1 -0.0500008 0.00109999
3.1125 -0.0500008 0.00109999
3.125 -0.0500008 0.00109999
3.1375 -0.0500008 0.00109999
3.15 -0.0500008 0.00109999
3.1625 -0.0500008 0.00109999
3.175 -0.0500008 0.00109999
3.1875 -0.0500008 0.00109999
3.2 -0.0500008 0.00109999
3.2125 -0.0500008 0.00109999
3.225 -0.0500008 0.00109999
3.2375 -0.0500008 0.00109999
3.25 -0.0500008 0.00109999
3.2625 -0.0500008 0.00109999
3.275 -0.0500008 0.00109999
3.2875 -0.0500008 0.00109999
3.3 -0.0500008 0.00109999
3.3125 -0.0500008 0.00109999
3.325 -0.0500008 0.00109999
3.3375 -0.0500008 0.00109999
3.35 -0.0500008 0.0011
3.3625 -0.0500008 0.0011
[...]
POINT_DATA 15780
 FIELD attributes 2
p 1 15780 float
-0.0310978 -0.0311138 -0.0311299 -0.0311459 -0.031162 -0.031178 -0.0321095 -0.0330332 -0.033957 -0.0348807 -0.0359011 -0.036965 -0.0380313 -0.0390977 -0.040164 -0.0411837 -0.0421672 -0.043132 -0.0440968 -0.0450616 -0.0459747 -0.0468725 -0.0477751 -0.0486776 -0.0495802 -0.0504769 -0.0513775 -0.052279 -0.0531805 -0.054082 -0.0549829 -0.0558904 -0.0567983 -0.0577063 -0.0586142 -0.0595217 -0.0604213 -0.0613188 -0.0622163 -0.0631138 -0.0640084 -0.0648874 -0.0657646 -0.0666417 -0.0675189 -0.0683939 -0.0692513 -0.0701066 -0.0709619 -0.0718172 -0.0726706 -0.0735053 -0.0743373 -0.0751693 -0.0760014 -0.0768311 -0.0776393 -0.0784445 -0.0792497 -0.0800548 -0.0808572 -0.0816353 -0.0824096 -0.0831838 -0.0839581 -0.0847288 -0.0854729 -0.0862129 -0.0869528 -0.0876928 -0.0884288 -0.0891362 -0.0898387 -0.0905413 -0.0912438 -0.0919418 -0.0926091 -0.0932712 -0.0939334 -0.0945955 -0.0952527 -0.0958772 -0.096496 -0.0971149 -0.0977337 -0.098347 -0.098926 -0.0994992 -0.100072 -0.100646 -0.101213 -0.101745 -0.102272 -0.102798 -0.103324 -0.103844 -0.104329 -0.104806 -0.105284 -0.105762 -0.106233 -0.106667 -0.107094 -0.107521 -0.107947 -0.108367 -0.108747 -0.10912 -0.109493 -0.109866 -0.110231 -0.110556 -0.110873 -0.11119 -0.111507 -0.111816 -0.112084 -0.112344 -0.112604 -0.112865 -0.113117 -0.113327 -0.11353 -0.113733 -0.113935 -0.11413 -0.114282 -0.114426 -0.114571 -0.114715 -0.11485 -0.114943 -0.115029 -0.115114 -0.1152 -0.115277 -0.115313 -0.115342 -0.115371 -0.1154 -0.115421 -0.115403 -0.115378 -0.115352 -0.115327 -0.115294 -0.115223 -0.115146 -0.115068 -0.11499 -0.114905 -0.114783 -0.114653 -0.114524 -0.114394 -0.114257 -0.114083 -0.113902 -0.113721 -0.11354 -0.113351 -0.113128 -0.112897 -0.112667 -0.112436 -0.112199 -0.111928 -0.111652 -0.111375 -0.111098 -0.110814 -0.1105 -0.110179 -0.109859 -0.109538 -0.109211 -0.108854 -0.108492 -0.108129 -0.107767 -0.107398 -0.107001 -0.106599 -0.106197 -0.105796 -0.105388 -0.104955 -0.104516 -0.104078 -0.10364 -0.103196 -0.102729 -0.102259 -0.101789 -0.101318 -0.100843 -0.100349 -0.0998509 -0.0993528 -0.0988548 -0.0983526 -0.0978337 -0.0973113 -0.0967889 -0.0962664 -0.0957401 -0.0951992 -0.0946548 -0.0941105 -0.0935661 -0.093018 -0.0924571 -0.0918933 -0.0913295 -0.0907658 -0.0901988 -0.0896211 -0.089041 -0.0884608 -0.0878806 -0.0872975 -0.086706 -0.0861126 -0.0855192 -0.0849258 -0.0843302 -0.0837283 -0.0831248 -0.0825213 -0.0819177 -0.0813122 -0.0807025 -0.0800917 -0.0794809 -0.0788701 -0.0782578 -0.0776434 -0.077028 -0.0764126 -0.0757972 -0.0751805 -0.0745635 -0.0739461 -0.0733287 -0.0727113 -0.0720931 -0.0714764 -0.0708594 -0.0702424 -0.0696254 -0.0690079 -0.0683933 -0.067779 -0.0671647 -0.0665503 -0.0659359 -0.0653259 -0.0647162 -0.0641065 -0.0634968 -0.0628872 -0.0622832 -0.06168 -0.0610768 -0.0604736 -0.0598709 -0.059275 -0.05868 -0.058085 -0.05749 -0.0568956 -0.0563091 -0.0557238 -0.0551386 -0.0545533 -0.0539691 -0.0533936 -0.0528195 -0.0522454 -0.0516713 -0.0510982 -0.0505349 -0.0499731 -0.0494113 -0.0488496 -0.0482892 -0.0477392 -0.0471908 -0.0466425 -0.0460941 -0.0455473 -0.0450113 -0.0444773 -0.0439432 -0.0434092 -0.0428769 -0.0423561 -0.0418371 -0.0413182 -0.0407992 -0.0402821 -0.0397768 -0.0392736 -0.0387704 -0.0382671 -0.0377659 -0.0372768 -0.0367899 -0.0363029 -0.0358159 -0.035331 -0.0348584 -0.034388 -0.0339177 -0.0334473 -0.0329791 -0.0325234 -0.0320699 -0.0316165 -0.031163 -0.0307117 -0.0302729 -0.0298365 -0.0294001 -0.0289637 -0.0285296 -0.0281079 -0.0276886 -0.0272692 -0.0268499 -0.0264329 -0.0260283 -0.0256261 -0.0252238 -0.0248216 -0.0244218 -0.0240342 -0.0236491 -0.023264 -0.0228789 -0.0224962 -0.0221258 -0.0217579 -0.02139 -0.0210221 -0.0206567 -0.0203035 -0.0199527 -0.019602 -0.0192513 -0.0189029 -0.0185662 -0.0182322 -0.0178982 -0.0175641 -0.0172326 -0.0169122 -0.0165943 -0.0162765 -0.0159586 -0.0156431 -0.0153385 -0.0150362 -0.0147339 -0.0144316 -0.0141318 -0.0138424 -0.0135554 -0.0132683 -0.0129813 -0.0126967 -0.0124225 -0.0121504 -0.0118783 -0.0116062 -0.0113364 -0.0110767 -0.0108192 -0.0105618 -0.0103043 -0.0100491 -0.00980383 -0.00956067 -0.00931752 -0.00907436 -0.00883341 -0.00860193 -0.0083725 -0.00814307 -0.00791364 -0.00768629 -0.00746793 -0.00725168 -0.00703544 -0.00681919 -0.00660502 -0.00639949 -0.006196 -0.0059925 -0.005789 -0.00558751 -0.00539428 -0.00520317 -0.00501206 -0.00482094 -0.00463193 -0.00445089 -0.00427195 -0.00409302 -0.00391409 -0.0037372 -0.00356797 -0.00340079 -0.00323361 -0.00306643 -0.00290129 -0.00274324 -0.00258707 -0.00243089 -0.00227471 -0.00212057 -0.00197306 -0.00182708 -0.0016811 -0.00153512 -0.00139092 -0.00125296 -0.0011166 -0.000980239 -0.000843881 -0.000709296 -0.000580622 -0.000453557 -0.000326491 -0.000199426 -7.40056e-05 4.56627e-05 0.000163716 0.000281769 0.000399821 0.000516256 0.000627243 0.000736644 0.000846046 0.000955447 0.00106323 0.00116596 0.00126715 0.00136834 0.00146953 0.00156913 0.00166403 0.00175746 0.00185089 0.00194433 0.00203625 0.00212378 0.00220989 0.002296 0.0023821 0.00246673 0.00254724 0.00262641 0.00270558 0.00278476 0.00286253 0.00293647 0.0030091 0.00308172 0.00315435 0.00322558 0.00329328 0.00335973 0.00342618 0.00349263 0.00355778 0.00361964 0.00368027 0.00374091 0.00380154 0.0038609 0.00391722 0.0039724 0.00402758 0.00408276 0.00413673 0.00418792 0.00423798 0.00428803 0.00433809 0.00438694 0.00443325 0.00447848 0.00452371 0.00456895 0.00461305 0.00465482 0.00469552 0.00473622 0.00477693 0.00481652 0.00485397 0.00489044 0.00492691 0.00496337 0.00499879 0.00503229 0.00506479 0.0050973 0.00512981 0.00516128 0.00519101 0.00521983 0.00524864 0.00527745 0.0053053 0.00533157 0.00535694 0.0053823 0.00540767 0.00543207 0.00545508 0.00547724 0.0054994 0.00552156 0.00554281 0.00556284 0.00558203 0.00560122 0.0056204 0.00563869 0.00565591 0.00567235 0.00568878 0.00570522 0.00572081 0.00573549 0.00574938 0.00576327 0.00577716 0.00579023 0.00580249 0.00581403 0.00582557 0.00583712 0.00584789 0.00585799 0.00586737 0.00587675 0.00588613 0.00589473 0.0059028 0.00591019 0.00591758 0.00592498 0.00593165 0.0059379 0.00594347 0.00594905 0.00595462 0.00595948 0.00596402 0.00596794 0.00597186 0.00597578 0.00597902 0.00598206 0.00598448 0.00598689 0.0059893 0.00599103 0.00599267 0.00599371 0.00599475 0.0059958 0.00599621 0.00599661 0.00599641 0.00599621 0.00599601 0.00599519 0.00599443 0.00599312 0.00599181 0.00599051 0.00598862 0.00598688 0.00598459 0.0059823 0.00598001 0.00597714 0.00597449 0.00597132 0.00596815 0.00596498 0.00596126 0.00595784 0.00595389 0.00594995 0.00594601 0.00594152 0.00593739 0.00593279 0.00592818 0.00592357 0.00591844 0.00591376 0.00590858 0.00590341 0.00589823 0.00589254 0.00588736 0.00588171 0.00587607 0.00587042 0.00586429 0.00585872 0.00585269 0.00584666 0.00584063 0.00583412 0.00582823 0.0058219 0.00581557 0.00580924 0.00580245 0.00579634 0.00578979 0.00578325 0.0057767 0.00576969 0.00576343 0.00575674 0.00575005 0.00574336 0.00573623 0.0057299 0.00572314 0.00571638 0.00570963 0.00570244 0.00569609 0.00568934 0.00568259 0.00567583 0.00566867 0.00566239 0.0056557 0.00564902 0.00564234 0.00563525 0.0056291 0.00562255 0.00561601 0.00560946 0.00560252 0.00559656 0.00559022 0.00558387 0.00557753 0.00557079 0.00556509 0.005559 0.00555292 0.00554683 0.00554036 0.00553496 0.00552919 0.00552341 0.00551764 0.00551149 0.00550646 0.00550105 0.00549563 0.00549022 0.00548443 0.00547979 0.00547478 0.00546977 0.00546475 0.00545938 0.00545518 0.00545059 0.005446 0.00544141 0.00543645 0.00543267 0.0054285 0.00542433 0.00542016 0.00541562 0.00541223 0.00540842 0.0054046 0.00540079 0.00539658 0.00539338 0.00538974 0.00538609 0.00538245 0.00537839 0.00537497 0.00537106 0.00536714 0.00536322 0.00535882 0.00535391 0.00534818 0.00534246 0.00533673 0.00533022 0.00532144 0.00531223 0.00530302 0.00529381 0.00528411 0.00525798 0.00522632 0.00519467 0.00516302 0.00512648 0.00511499 0.00511764 0.00512029 0.00512294 0.00514856 0.00523215 0.00530819 0.00538755 0.00545051 0.00549612 0.00548909 0.00548525 0.00548142 0.00547761 0.00547607 0.00550295 0.00553063 0.0055583 0.00557797 0.00559893 0.00561286 0.00563171 0.00565059 0.00566946 0.00568379 0.00574668 0.00581169 0.0058767 0.00594171 0.00599822 0.00608966 0.00616576 0.00624187 0.00631798 0.00632313 0.0063085 0.00628912 0.00626974 0.00625037 0.00624049 0.00603964 0.00581808 0.00559653 0.00537497 0.00504761 0.00456762 0.00407374 0.00357986 0.00308598 0.0026219 0.00235214 0.00207484 0.00179753 0.00152023 0.0012729 0.0011743 0.00106928 0.000964257 0.000859234 0.00077359 0.000667676 0.000556206 0.000444736 0.000333264 0.000255278
-0.0319472 -0.0319663 -0.0319854 -0.0320045 -0.0320236 -0.0320427 -0.0327436 -0.0336212 -0.0344038 -0.0351663 -0.0362246 -0.0372613 -0.0382516 -0.0392541 -0.0403135 -0.0412975 -0.0422587 -0.0432247 -0.0441653 -0.0451005 -0.0460064 -0.0469045 -0.0478106 -0.0487165 -0.0496217 -0.0505267 -0.0514184 -0.0523221 -0.0532308 -0.0541405 -0.0550609 -0.0559661 -0.0568783 -0.05779 -0.0586995 -0.0596146 -0.0605159 -0.0614143 -0.0623139 -0.0632137 -0.0641099 -0.0649909 -0.0658709 -0.0667505 -0.0676282 -0.068504 -0.0693622 -0.0702179 -0.0710761 -0.0719348 -0.0727914 -0.0736254 -0.0744608 -0.0752957 -0.076128 -0.0769616 -0.0777689 -0.0785743 -0.079382 -0.0801903 -0.080997 -0.0817727 -0.0825498 -0.0833265 -0.0841009 -0.0848769 -0.0856177 -0.0863577 -0.0871 -0.0878427 -0.0885851 -0.0892875 -0.0899926 -0.0906974 -0.0914 -0.0921054 -0.0927667 -0.0934289 -0.0940931 -0.0947577 -0.0954235 -0.0960404 -0.0966614 -0.0972821 -0.0979009 -0.0985236 -0.0990927 -0.0996657 -0.10024 -0.100816 -0.101395 -0.101914 -0.102441 -0.102969 -0.103495 -0.10403 -0.104502 -0.104979 -0.105458 -0.105936 -0.106421 -0.106844 -0.10727 -0.107697 -0.108124 -0.108555 -0.108925 -0.109298 -0.10967 -0.110043 -0.110418 -0.110733 -0.111049 -0.111366 -0.111683 -0.112001 -0.11226 -0.112521 -0.11278 -0.113039 -0.113299 -0.113502 -0.113704 -0.113906 -0.114108 -0.11431 -0.114455 -0.114599 -0.114742 -0.114886 -0.115029 -0.115112 -0.115197 -0.115283 -0.115368 -0.115455 -0.115479 -0.115508 -0.115537 -0.115566 -0.115599 -0.115567 -0.115541 -0.115515 -0.115489 -0.115469 -0.115385 -0.115307 -0.115228 -0.115148 -0.115075 -0.114939 -0.114806 -0.114673 -0.114543 -0.114416 -0.114229 -0.114048 -0.113863 -0.113679 -0.113499 -0.113263 -0.113029 -0.112795 -0.112564 -0.112335 -0.112053 -0.111776 -0.111496 -0.111215 -0.110939 -0.110614 -0.11029 -0.109966 -0.109645 -0.109324 -0.108959 -0.108596 -0.108231 -0.107866 -0.107502 -0.107099 -0.106695 -0.106291 -0.105889 -0.105486 -0.105046 -0.104607 -0.104167 -0.103727 -0.103288 -0.102812 -0.102339 -0.101866 -0.101395 -0.100927 -0.100422 -0.0999231 -0.099422 -0.0989203 -0.0984253 -0.0978962 -0.09737 -0.0968443 -0.0963214 -0.0958011 -0.0952515 -0.0947068 -0.0941594 -0.0936115 -0.0930684 -0.0924999 -0.0919328 -0.0913663 -0.0908022 -0.0902391 -0.0896545 -0.0890739 -0.0884911 -0.0879078 -0.0873283 -0.0867305 -0.0861341 -0.0855382 -0.0849444 -0.0843518 -0.0837441 -0.0831402 -0.0825343 -0.0819279 -0.0813251 -0.0807103 -0.0800967 -0.0794836 -0.0788725 -0.0782624 -0.0776432 -0.0770275 -0.07641 -0.075792 -0.0751773 -0.0745563 -0.0739365 -0.073317 -0.0726994 -0.0720826 -0.0714622 -0.070845 -0.0702262 -0.069607 -0.0689908 -0.0683733 -0.067757 -0.067141 -0.0665265 -0.0659129 -0.0653003 -0.0646904 -0.0640792 -0.0634677 -0.0628588 -0.0622528 -0.0616479 -0.0610433 -0.0604399 -0.0598375 -0.0592399 -0.0586447 -0.0580485 -0.057452 -0.0568578 -0.05627 -0.0556834 -0.0550971 -0.0545117 -0.0539273 -0.0533509 -0.0527767 -0.0522016 -0.0516263 -0.051053 -0.0504891 -0.0499264 -0.0493637 -0.0488019 -0.048241 -0.0476907 -0.0471423 -0.0465932 -0.046044 -0.0454965 -0.0449607 -0.0444259 -0.0438913 -0.0433572 -0.0428241 -0.0423035 -0.0417846 -0.0412652 -0.0407456 -0.0402276 -0.0397229 -0.0392192 -0.0387157 -0.0382125 -0.0377101 -0.0372218 -0.0367349 -0.0362476 -0.0357603 -0.0352743 -0.0348027 -0.0343321 -0.0338616 -0.0333913 -0.0329218 -0.0324673 -0.0320138 -0.0315603 -0.0311067 -0.0306541 -0.0302167 -0.0297803 -0.0293439 -0.0289075 -0.028472 -0.0280518 -0.0276325 -0.0272133 -0.0267941 -0.0263758 -0.0259727 -0.0255707 -0.0251686 -0.0247664 -0.0243651 -0.0239791 -0.0235941 -0.0232091 -0.0228242 -0.0224402 -0.0220711 -0.0217035 -0.0213359 -0.020968 -0.0206014 -0.0202494 -0.0198988 -0.0195483 -0.0191978 -0.0188484 -0.018513 -0.0181791 -0.0178452 -0.0175113 -0.0171786 -0.01686 -0.0165422 -0.0162245 -0.0159067 -0.01559 -0.0152876 -0.0149856 -0.0146836 -0.0143814 -0.0140796 -0.0137932 -0.0135062 -0.0132195 -0.0129328 -0.012646 -0.0123746 -0.012103 -0.0118313 -0.0115592 -0.011287 -0.01103 -0.0107725 -0.0105155 -0.0102585 -0.010001 -0.00975822 -0.00951553 -0.00927275 -0.00902965 -0.00878673 -0.00855775 -0.0083284 -0.00809945 -0.0078706 -0.00764126 -0.00742557 -0.00721005 -0.00699442 -0.0067783 -0.00656243 -0.00635934 -0.00615595 -0.00595309 -0.00575034 -0.0055473 -0.00535632 -0.00516595 -0.00497546 -0.00478443 -0.00459395 -0.0044148 -0.00423592 -0.00405745 -0.00387906 -0.00370104 -0.00353303 -0.00336609 -0.00319911 -0.00303196 -0.00286563 -0.00270901 -0.0025529 -0.0023969 -0.00224092 -0.00208558 -0.00193989 -0.00179431 -0.00164868 -0.00150281 -0.00135724 -0.00122183 -0.0010856 -0.000949756 -0.000813997 -0.000677475 -0.00055151 -0.000425109 -0.000298608 -0.000171654 -4.44128e-05 7.28587e-05 0.000190826 0.000308354 0.000425784 0.000543952 0.00065277 0.000761623 0.000870564 0.000979897 0.00108924 0.00118996 0.00129109 0.00139186 0.00149255 0.00159362 0.00168663 0.00177959 0.00187262 0.00196599 0.0020593 0.00214496 0.00223099 0.00231671 0.00240236 0.00248833 0.00256707 0.00264578 0.00272457 0.00280367 0.00288271 0.00295488 0.00302744 0.00309967 0.00317183 0.00324431 0.00331038 0.00337639 0.00344247 0.00350886 0.00357518 0.00363542 0.003696 0.0037563 0.00381654 0.00387705 0.00393185 0.00398668 0.00404156 0.00409668 0.00415182 0.00420144 0.00425143 0.00430119 0.0043509 0.00440092 0.00444571 0.00449058 0.00453552 0.00458069 0.00462594 0.00466616 0.00470681 0.00474722 0.00478757 0.00482829 0.00486429 0.00490042 0.00493661 0.00497302 0.00500956 0.00504156 0.00507402 0.00510626 0.00513845 0.00517102 0.00519935 0.00522786 0.00525641 0.00528518 0.00531411 0.00533896 0.00536428 0.0053894 0.00541448 0.00543996 0.00546163 0.00548351 0.00550543 0.00552755 0.00554987 0.00556854 0.00558768 0.00560665 0.00562556 0.0056449 0.00566084 0.00567701 0.00569323 0.00570963 0.00572626 0.00573961 0.00575347 0.00576715 0.00578079 0.00579488 0.0058059 0.00581721 0.00582856 0.00584006 0.00585184 0.00586067 0.00587001 0.0058792 0.00588836 0.00589797 0.00590483 0.00591201 0.00591923 0.00592659 0.00593425 0.00593926 0.00594481 0.00595021 0.00595559 0.00596144 0.00596482 0.00596854 0.0059723 0.00597619 0.00598041 0.00598225 0.00598464 0.0059869 0.00598913 0.00599185 0.00599235 0.00599322 0.00599411 0.00599513 0.00599651 0.00599573 0.00599551 0.00599517 0.00599481 0.00599496 0.00599307 0.00599162 0.00599018 0.00598885 0.00598794 0.00598507 0.00598276 0.00598035 0.00597791 0.00597599 0.00597226 0.00596894 0.00596565 0.00596246 0.00595968 0.00595516 0.0059512 0.00594715 0.00594307 0.00593951 0.00593434 0.00592961 0.00592489 0.00592027 0.00591607 0.00591032 0.00590513 0.00589986 0.00589457 0.0058898 0.00588359 0.00587784 0.00587211 0.00586644 0.00586123 0.00585462 0.00584858 0.00584246 0.00583633 0.00583074 0.00582384 0.00581741 0.00581101 0.00580466 0.0057988 0.00579166 0.0057851 0.00577848 0.00577184 0.00576575 0.00575849 0.00575172 0.00574496 0.00573826 0.00573206 0.00572471 0.00571794 0.00571112 0.00570429 0.00569802 0.00569069 0.00568387 0.00567706 0.0056703 0.00566405 0.00565677 0.00565008 0.00564335 0.00563661 0.00563043 0.00562331 0.00561671 0.00561012 0.00560357 0.00559755 0.00559061 0.00558425 0.00557787 0.00557148 0.00556566 0.00555899 0.00555287 0.00554675 0.00554066 0.00553513 0.00552875 0.00552297 0.00551717 0.00551137 0.00550616 0.00550016 0.00549473 0.00548931 0.00548389 0.00547907 0.00547345 0.00546844 0.00546343 0.00545842 0.00545402 0.00544885 0.0054443 0.00543975 0.00543516 0.00543123 0.00542646 0.0054223 0.00541821 0.00541414 0.00541069 0.00540631 0.00540272 0.00539909 0.0053953 0.00539232 0.00538815 0.00538456 0.00538132 0.00537817 0.00537561 0.00537128 0.00536846 0.00536546 0.00536168 0.0053594 0.00535407 0.00534882 0.00534582 0.00534336 0.00534092 0.00533188 0.00533014 0.00532722 0.00531927 0.00531823 0.00530391 0.00527933 0.00527482 0.00527503 0.0052643 0.00522139 0.00523296 0.00524333 0.0052486 0.0053167 0.00541015 0.00547371 0.00553728 0.00557525 0.00552894 0.00550971 0.00550267 0.00549562 0.00548812 0.00549212 0.00550965 0.00552781 0.00554598 0.00555767 0.00556893 0.00556999 0.00557104 0.00557209 0.00557302 0.00557371 0.00559854 0.00562749 0.00565653 0.00568556 0.00565894 0.00569709 0.00575973 0.00582275 0.00588577 0.00596576 0.00618003 0.00626905 0.00635151 0.00642762 0.0063207 0.00635656 0.00633719 0.00632074 0.00631128 0.00625591 0.00620937 0.00598781 0.00576626 0.00553212 0.00503854 0.00469892 0.00420504 0.00371116 0.00321461 0.00259581 0.00241419 0.00213689 0.00185959 0.00158229 0.00124249 0.00122339 0.00111837 0.00101335 0.000908327 0.000751158 0.000715164 0.000603696 0.000492227 0.000380758 0.000206756