# vtk DataFile Version 2.0
track0
ASCII
DATASET POLYDATA
POINTS 18897 float
-1.001 -0.05 0.0011
-1.00079 -0.05 0.00110001
-1.00058 -0.0500001 0.00110001
-1.00038 -0.0500001 0.00110002
-1.00017 -0.0500001 0.00110003
-0.999962 -0.0500001 0.00110003
-0.98746 -0.0500016 0.00110046
-0.974958 -0.0500032 0.00110041
-0.962456 -0.0500048 0.00110036
-0.949954 -0.0500064 0.0011003
-0.937452 -0.050008 0.00110025
-0.924948 -0.050008 0.00110061
-0.912445 -0.0500099 0.00110079
-0.899941 -0.0500118 0.00110096
-0.887437 -0.0500137 0.00110114
-0.874933 -0.0500156 0.00110132
-0.862428 -0.0500156 0.00110156
-0.849922 -0.0500179 0.00110168
-0.837416 -0.0500201 0.00110181
-0.82491 -0.0500224 0.00110193
-0.812404 -0.0500247 0.00110206
-0.799896 -0.0500272 0.0011022
-0.787388 -0.0500301 0.00110226
-0.774879 -0.0500329 0.00110233
-0.762371 -0.0500357 0.00110239
-0.749862 -0.0500385 0.00110246
-0.737351 -0.0500417 0.00110251
-0.724839 -0.0500452 0.0011025
-0.712327 -0.0500488 0.00110249
-0.699816 -0.0500524 0.00110248
-0.687304 -0.050056 0.00110247
-0.674789 -0.050056 0.00110237
-0.662273 -0.0500607 0.00110224
-0.649757 -0.0500654 0.00110211
-0.637242 -0.05007 0.00110198
-0.624726 -0.0500747 0.00110185
-0.612206 -0.05008 0.00110155
-0.599685 -0.0500863 0.0011012
-0.587165 -0.0500927 0.00110085
-0.574644 -0.0500991 0.0011005
-0.562124 -0.0501055 0.00110015
-0.549598 -0.0501128 0.00109944
-0.537072 -0.0501221 0.00109869
-0.524546 -0.0501315 0.00109794
-0.51202 -0.0501408 0.00109719
-0.499494 -0.0501502 0.00109644
-0.486962 -0.0501612 0.00109494
-0.47443 -0.0501768 0.00109344
-0.461898 -0.0501923 0.00109195
-0.449366 -0.0502078 0.00109046
-0.436834 -0.0502233 0.00108897
-0.424292 -0.0502234 0.00108589
-0.411751 -0.0502555 0.00108292
-0.39921 -0.0502875 0.00107996
-0.386669 -0.0503194 0.00107701
-0.374128 -0.0503513 0.00107407
-0.367852 -0.0503667 0.00107057
-0.361577 -0.0504132 0.00106805
-0.355302 -0.0504596 0.00106554
-0.349026 -0.0505059 0.00106304
-0.34275 -0.0505521 0.00106054
-0.336477 -0.0505797 0.0010569
-0.330204 -0.0506322 0.00105372
-0.323931 -0.0506845 0.00105054
-0.317658 -0.0507367 0.00104738
-0.311384 -0.0507887 0.00104423
-0.305108 -0.050828 0.00103913
-0.298832 -0.0509058 0.0010339
-0.292556 -0.0509833 0.0010287
-0.28628 -0.0510603 0.00102353
-0.280003 -0.0511369 0.00101838
-0.273727 -0.0511908 0.00101138
-0.267451 -0.051304 0.00100414
-0.261176 -0.0514164 0.00099696
-0.254901 -0.051528 0.000989828
-0.248623 -0.0516388 0.000982745
-0.242357 -0.0517143 0.000973465
-0.236093 -0.0518999 0.000963809
-0.229829 -0.0520835 0.000954251
-0.223565 -0.0522654 0.00094479
-0.217293 -0.0524456 0.000935413
-0.211047 -0.0525631 0.000924256
-0.204807 -0.0528669 0.000912678
-0.198567 -0.0531668 0.000901248
-0.192326 -0.0534629 0.000889966
-0.186064 -0.0537562 0.000878789
-0.182941 -0.0538556 0.000874157
-0.179825 -0.0540761 0.000870605
-0.176709 -0.0542956 0.000867069
-0.173592 -0.0545142 0.000863547
-0.170452 -0.0547336 0.000860013
-0.167328 -0.0548431 0.00085146
-0.16421 -0.0550772 0.000848611
-0.161093 -0.0553104 0.000845771
-0.157975 -0.0555429 0.000842941
-0.154831 -0.0557766 0.000840097
-0.151684 -0.0559009 0.000838309
-0.148545 -0.0561741 0.000835485
-0.145407 -0.0564465 0.000832671
-0.142269 -0.0567179 0.000829866
-0.139097 -0.0569913 0.00082704
-0.135919 -0.0571304 0.000826961
-0.132753 -0.0574421 0.000825853
-0.129588 -0.0577533 0.000824747
-0.126422 -0.0580642 0.000823642
-0.123218 -0.0583783 0.000822525
-0.12 -0.0585336 0.000825283
-0.116795 -0.0588735 0.000827011
-0.113589 -0.0591876 0.000829529
-0.110379 -0.0594775 0.000832798
-0.107149 -0.0597466 0.000836805
-0.105139 -0.0598692 0.000839257
-0.103131 -0.0600292 0.000844005
-0.101123 -0.0601876 0.000850659
-0.099115 -0.060336 0.000857722
-0.098126 -0.0604044 0.000861395
-0.0966786 -0.0605013 0.000866908
-0.0952313 -0.0606013 0.000872331
-0.0937843 -0.0607044 0.000877661
-0.0923375 -0.0608106 0.000882896
-0.0908903 -0.0609201 0.000888034
-0.0876404 -0.0611442 0.000900785
-0.0843955 -0.0614316 0.000914469
-0.0811528 -0.0617435 0.00092828
-0.0779118 -0.0620729 0.000941042
-0.0746702 -0.0624201 0.000952707
-0.0715112 -0.0625818 0.000966684
-0.0683675 -0.0629331 0.000977849
-0.0652281 -0.0633204 0.000988253
-0.06209 -0.0637182 0.00099764
-0.058955 -0.0640484 0.00100882
-0.0559854 -0.0641946 0.00102365
-0.0530261 -0.064482 0.00103565
-0.050075 -0.0648436 0.00104619
-0.0471243 -0.0652086 0.00105683
-0.0441614 -0.0655463 0.00107371
-0.0412257 -0.0658316 0.00110096
-0.0382927 -0.0661441 0.00111762
-0.0353618 -0.066475 0.00112678
-0.032431 -0.0668083 0.00113601
-0.0294887 -0.0671099 0.0011519
-0.0265156 -0.0673613 0.00117614
-0.0235437 -0.0676263 0.00119177
-0.020572 -0.0678936 0.00119934
-0.0176004 -0.0681625 0.00120695
-0.0146232 -0.0683482 0.00121539
-0.0116125 -0.0684359 0.00122491
-0.00860337 -0.068567 0.00123195
-0.00559617 -0.0687366 0.00123679
-0.00258901 -0.0689067 0.00124164
0.000428052 -0.0690356 0.0012479
0.00346292 -0.0691187 0.00125545
0.00649813 -0.0691879 0.00125974
0.00953364 -0.0692433 0.00126087
0.0125692 -0.069297 0.00126182
0.0156025 -0.069321 0.00126127
0.0186447 -0.069314 0.00125915
0.0216867 -0.0692771 0.00125662
0.0247282 -0.0692117 0.00125372
0.0277697 -0.0691452 0.00125074
0.0308123 -0.0690639 0.00124377
0.0338408 -0.0689685 0.00123276
0.0368675 -0.0688288 0.00122408
0.0398922 -0.0686505 0.00121775
0.042917 -0.068473 0.00121146
0.0459504 -0.0683375 0.00120237
0.048966 -0.0682518 0.00119015
0.051977 -0.0680652 0.00117972
0.0549817 -0.0677961 0.00117075
0.0579866 -0.0675288 0.00116183
0.061009 -0.0673269 0.00114991
0.0640392 -0.06721 0.00113422
0.0670618 -0.066966 0.00112123
0.0700757 -0.0666311 0.00111022
0.07309 -0.0662991 0.0010993
0.0761236 -0.0659757 0.00107975
0.0792253 -0.0656617 0.0010477
0.0823218 -0.0652995 0.00102825
0.0854151 -0.0649099 0.00101606
0.0885088 -0.0645244 0.00100401
0.0916216 -0.0641625 0.000986164
0.0947825 -0.0638427 0.000957195
0.0979393 -0.0634835 0.000942638
0.101096 -0.0631264 0.000931923
0.104255 -0.0627848 0.000920249
0.107423 -0.0624579 0.000907632
0.110616 -0.0622865 0.000891634
0.113802 -0.0620039 0.000880694
0.116989 -0.0617432 0.000870096
0.120177 -0.0614994 0.000859176
0.123384 -0.0612707 0.000847896
0.124744 -0.06119 0.000842694
0.126104 -0.0611058 0.000838501
0.127464 -0.0610294 0.000835295
0.128824 -0.0609564 0.000832299
0.130421 -0.0608735 0.000828789
0.132201 -0.0607846 0.000824886
0.133981 -0.0606901 0.000821077
0.135761 -0.0605899 0.000817366
0.13754 -0.0604836 0.000813755
0.139322 -0.0603709 0.000810242
0.142492 -0.0602073 0.000805767
0.145659 -0.0600073 0.000803084
0.148825 -0.0597912 0.000800571
0.15199 -0.0595582 0.000798238
0.155169 -0.0593057 0.000796084
0.158317 -0.0591716 0.000792851
0.161458 -0.0589259 0.000793344
0.164598 -0.0586646 0.000793976
0.167737 -0.0583957 0.000794675
0.170909 -0.0581237 0.000795382
0.174047 -0.0580037 0.000794749
0.177179 -0.0577701 0.000796811
0.180311 -0.0575359 0.000798878
0.183442 -0.0573011 0.00080095
0.1866 -0.0570636 0.000803046
0.189734 -0.0569575 0.000809526
0.192864 -0.0567601 0.000811593
0.195993 -0.0565623 0.000813664
0.199123 -0.0563639 0.000815742
0.20227 -0.0561639 0.000817836
0.205402 -0.0560719 0.000824435
0.20853 -0.0558902 0.000827085
0.211658 -0.055708 0.000829744
0.214785 -0.0555251 0.000832411
0.217928 -0.0553407 0.0008351
0.224185 -0.0551812 0.000839105
0.23044 -0.0549544 0.000845442
0.236695 -0.0547258 0.000851828
0.242949 -0.0544954 0.000858263
0.249212 -0.054263 0.000864757
0.255483 -0.0541802 0.000878078
0.261753 -0.0540554 0.000881766
0.268023 -0.0539301 0.00088547
0.274293 -0.0538043 0.00088919
0.280565 -0.0536779 0.000892927
0.286854 -0.0536311 0.000893485
0.293142 -0.0535653 0.000894087
0.29943 -0.0534995 0.000894691
0.305719 -0.0534336 0.000895294
0.312008 -0.0533676 0.000895899
0.318305 -0.0533498 0.000896299
0.324603 -0.0533123 0.000894725
0.330901 -0.0532748 0.000893152
0.337199 -0.0532374 0.000891583
0.343497 -0.0532001 0.000890017
0.349796 -0.0531837 0.000886166
0.356095 -0.0531619 0.000883507
0.362395 -0.0531401 0.000880857
0.368694 -0.0531184 0.000878214
0.374994 -0.0530968 0.000875579
0.381284 -0.0530873 0.000871082
0.387575 -0.0530749 0.000868146
0.393865 -0.0530626 0.000865221
0.400155 -0.0530503 0.000862306
0.406446 -0.0530381 0.0008594
0.412724 -0.0530328 0.000854977
0.419002 -0.0530261 0.000852197
0.425279 -0.0530194 0.000849426
0.431557 -0.0530128 0.000846664
0.437835 -0.0530061 0.000843912
0.444098 -0.0530035 0.000839915
0.450361 -0.0530006 0.000837439
0.456623 -0.0529977 0.000834969
0.462886 -0.0529949 0.000832507
0.469149 -0.0529921 0.000830052
0.475398 -0.0529912 0.000826608
0.481648 -0.0529912 0.000824503
0.487898 -0.0529912 0.000822403
0.494148 -0.0529911 0.000820309
0.500398 -0.0529911 0.000818219
0.506641 -0.0529918 0.000815553
0.512885 -0.0529943 0.00081384
0.519128 -0.0529968 0.000812131
0.525372 -0.0529993 0.000810426
0.531615 -0.0530017 0.000808724
0.537854 -0.0530038 0.000806522
0.544093 -0.0530082 0.000805246
0.550332 -0.0530126 0.000803971
0.556572 -0.053017 0.000802698
0.562811 -0.0530214 0.000801428
0.569043 -0.0530237 0.000799919
0.575275 -0.0530297 0.000799069
0.581507 -0.0530357 0.00079822
0.587739 -0.0530417 0.000797372
0.593971 -0.0530477 0.000796525
0.600197 -0.0530514 0.000795565
0.606423 -0.0530583 0.000795092
0.612649 -0.0530651 0.000794619
0.618875 -0.053072 0.000794147
0.625101 -0.0530788 0.000793674
0.631326 -0.0530819 0.000793242
0.637552 -0.0530892 0.000793108
0.643778 -0.0530964 0.000792975
0.650003 -0.0531037 0.000792841
0.656229 -0.0531109 0.000792708
0.66246 -0.0531151 0.000792701
0.668692 -0.0531228 0.000792865
0.674923 -0.0531305 0.00079303
0.681155 -0.0531382 0.000793195
0.687386 -0.0531459 0.00079336
0.693627 -0.0531504 0.000793721
0.699869 -0.0531589 0.000794109
0.70611 -0.0531673 0.000794498
0.712352 -0.0531757 0.000794887
0.718593 -0.0531842 0.000795276
0.724846 -0.0531892 0.000795887
0.731099 -0.0531989 0.000796375
0.737352 -0.0532085 0.000796863
0.743604 -0.0532181 0.000797352
[...]
POINT_DATA 18897
 FIELD attributes 1
U 3 18897 float
19.9774 	-0.00243962 	0.000613956 19.9776 	-0.00241865 	0.000628652 19.9779 	-0.00239768 	0.000643348 19.9782 	-0.00237671 	0.000658044 19.9785 	-0.00235574 	0.00067274 19.9787 	-0.00233477 	0.000687436 19.9535 	-0.0025606 	-8.46571e-05 19.9535 	-0.00256048 	-8.4653e-05 19.9535 	-0.00256035 	-8.4649e-05 19.9535 	-0.00256023 	-8.46449e-05 19.9757 	-9.5539e-06 	0.000572716 19.9473 	-0.0030117 	0.000281662 19.9473 	-0.00301218 	0.000281707 19.9473 	-0.00301267 	0.000281752 19.9473 	-0.00301315 	0.000281797 19.9716 	-1.23786e-05 	0.000384048 19.939 	-0.00364804 	0.000199665 19.939 	-0.00364845 	0.000199687 19.939 	-0.00364887 	0.00019971 19.939 	-0.00364928 	0.000199733 19.9676 	-0.00399156 	0.00022536 19.9299 	-0.00450886 	0.000103247 19.9299 	-0.00450912 	0.000103253 19.9299 	-0.00450939 	0.000103259 19.9299 	-0.00450965 	0.000103265 19.9629 	-0.00497314 	7.5455e-05 19.9194 	-0.00570364 	-1.5842e-05 19.9194 	-0.00570359 	-1.58418e-05 19.9194 	-0.00570354 	-1.58417e-05 19.9194 	-0.00570349 	-1.58416e-05 19.9565 	-2.68778e-05 	-0.000149005 19.9069 	-0.00743728 	-0.000207738 19.9069 	-0.0074364 	-0.000207714 19.9069 	-0.00743552 	-0.000207689 19.9069 	-0.00743463 	-0.000207664 19.9509 	-0.00837879 	-0.000485073 19.8908 	-0.0101354 	-0.00055451 19.8909 	-0.0101321 	-0.000554334 19.8909 	-0.0101289 	-0.000554158 19.8909 	-0.0101257 	-0.000553983 19.9424 	-0.0116119 	-0.00113187 19.8673 	-0.0148446 	-0.00119048 19.8674 	-0.0148345 	-0.00118967 19.8675 	-0.0148244 	-0.00118886 19.8676 	-0.0148143 	-0.00118804 19.9293 	-0.0175147 	-0.00239309 19.8252 	-0.0246345 	-0.00236376 19.8255 	-0.0246008 	-0.00236053 19.8257 	-0.0245673 	-0.00235731 19.8259 	-0.0245338 	-0.00235409 19.8921 	-9.43205e-05 	-0.00488341 19.7303 	-0.0505088 	-0.00467083 19.731 	-0.0503707 	-0.00465806 19.7317 	-0.050233 	-0.00464533 19.7325 	-0.0500956 	-0.00463263 19.8093 	-0.0486186 	-0.0110431 19.5808 	-0.145174 	-0.00785132 19.5818 	-0.144833 	-0.00783286 19.5828 	-0.144492 	-0.00781445 19.5838 	-0.144153 	-0.00779609 19.8093 	-0.0872082 	-0.0115019 19.6032 	-0.163978 	-0.00993902 19.6044 	-0.163485 	-0.00990911 19.6056 	-0.162993 	-0.00987929 19.6068 	-0.162502 	-0.00984956 19.8238 	-0.124313 	-0.0161294 19.5939 	-0.242943 	-0.0163135 19.596 	-0.241722 	-0.0162315 19.598 	-0.240506 	-0.0161499 19.6 	-0.239297 	-0.0160687 19.8253 	-0.170159 	-0.0221159 19.5608 	-0.352962 	-0.0225603 19.5639 	-0.350436 	-0.0223989 19.5671 	-0.347929 	-0.0222386 19.5702 	-0.34544 	-0.0220795 19.8211 	-0.238744 	-0.0293535 19.4946 	-0.577529 	-0.0300526 19.4996 	-0.5718 	-0.0297545 19.5046 	-0.56613 	-0.0294595 19.5095 	-0.560517 	-0.0291674 19.8171 	-0.372906 	-0.0353978 19.4393 	-0.946458 	-0.0360691 19.4464 	-0.934601 	-0.0356173 19.4533 	-0.922897 	-0.0351713 19.4601 	-0.911344 	-0.034731 19.8082 	-0.631152 	-0.0293867 19.5259 	-1.3812 	-0.0222513 19.5279 	-1.37559 	-0.0221609 19.5298 	-1.37 	-0.0220708 19.5317 	-1.36443 	-0.0219812 19.7855 	-0.693426 	-0.0541614 19.7424 	-1.48228 	-0.018044 19.7433 	-1.47732 	-0.0179837 19.7441 	-1.47237 	-0.0179235 19.745 	-1.46745 	-0.0178635 19.9656 	-0.788628 	-0.0113418 19.9272 	-1.73516 	-0.0179307 19.9275 	-1.72932 	-0.0178704 19.9277 	-1.72349 	-0.0178102 19.928 	-1.71769 	-0.0177502 20.0521 	-0.877564 	-0.00049931 20.1078 	-1.97967 	-0.00703815 20.1076 	-1.97702 	-0.00702872 20.1075 	-1.97437 	-0.0070193 20.1073 	-1.97172 	-0.0070099 20.1444 	-0.971589 	0.0172641 20.3435 	-2.15826 	0.0109684 20.3315 	-1.99132 	0.0159685 20.3206 	-1.83601 	0.0207013 20.3107 	-1.6916 	0.025185 20.2581 	-1.23537 	0.0247151 20.4341 	-1.62901 	0.0483256 20.4949 	-1.61699 	0.067936 20.4774 	-1.51328 	0.0720133 20.461 	-1.41483 	0.0759872 20.4534 	-1.36884 	0.0778954 20.4672 	-1.41369 	0.0766901 20.4813 	-1.45909 	0.075444 20.4955 	-1.50504 	0.0741563 20.5098 	-1.55156 	0.0728265 20.4674 	-1.41117 	0.0803043 20.7654 	-1.8392 	0.0875621 20.8714 	-2.0075 	0.0888983 20.9219 	-2.12646 	0.0823847 20.9727 	-2.24649 	0.0754697 20.5331 	-1.05101 	0.0908467 21.2752 	-2.37786 	0.0755642 21.4679 	-2.64812 	0.0711418 21.5067 	-2.72633 	0.0643311 21.264 	-2.23942 	0.0758321 20.6529 	-1.01692 	0.103176 21.451 	-2.08322 	0.0869486 21.9003 	-2.68395 	0.0782403 21.9196 	-2.71127 	0.0790368 21.7861 	-2.48312 	0.124077 21.5585 	-2.09467 	0.200115 21.9707 	-2.34116 	0.1248 22.2652 	-2.5139 	0.0695899 22.2838 	-2.53451 	0.0701603 22.113 	-2.26637 	0.119469 21.8254 	-1.84552 	0.177939 22.2943 	-1.98784 	0.11728 22.6331 	-2.03621 	0.0576139 22.6498 	-2.04914 	0.0579796 21.8585 	-1.36342 	0.0619788 20.9906 	-0.611278 	0.0663709 21.941 	-0.956468 	0.0513662 22.8569 	-1.28866 	0.0367623 22.8681 	-1.29372 	0.0369066 22.4658 	-0.959439 	0.046564 21.9955 	-0.602241 	0.0547219 22.4867 	-0.512834 	0.0318115 22.9636 	-0.419102 	0.00852027 22.9644 	-0.406258 	0.00725478 22.4824 	-0.177682 	-0.00408045 21.9968 	0.0505806 	-0.0153821 22.4668 	0.271948 	-0.0186365 22.9361 	0.49328 	-0.0218856 22.9326 	0.501612 	-0.0224976 22.4483 	0.599796 	-0.0514046 21.9474 	0.691701 	-0.0797564 22.397 	1.03334 	-0.0642975 22.7786 	1.3428 	-0.0476133 22.7643 	1.33587 	-0.0473674 21.8921 	0.977919 	-0.065623 20.9617 	0.595709 	-0.0848865 21.8003 	1.35089 	-0.0755509 22.542 	2.01874 	-0.0673226 22.5226 	2.00338 	-0.0668104 21.7698 	1.4543 	-0.0858442 20.8813 	0.806037 	-0.108149 21.6726 	1.74921 	-0.093108 22.2824 	2.47627 	-0.0814211 22.26 	2.45195 	-0.0806214 21.9763 	2.34255 	-0.141691 21.5868 	2.18528 	-0.223021 21.7704 	2.54618 	-0.136761 21.8768 	2.75576 	-0.0861749 21.8546 	2.72311 	-0.0851537 21.5964 	2.5108 	-0.123815 21.1387 	2.13896 	-0.193729 21.2912 	2.42225 	-0.0981838 21.2546 	2.40439 	-0.0721352 21.1715 	2.28973 	-0.0782471 21.0901 	2.17629 	-0.0839946 20.512 	1.10073 	-0.102766 20.7077 	1.8376 	-0.0711218 20.6164 	1.68576 	-0.0685471 20.5557 	1.57198 	-0.070401 20.4973 	1.46187 	-0.072107 20.3577 	1.20878 	-0.077862 20.3429 	1.25855 	-0.0627261 20.2587 	1.13843 	-0.0477537 20.2304 	1.08525 	-0.0445613 20.2168 	1.04989 	-0.0444374 20.2012 	1.00918 	-0.0442916 20.2138 	1.07273 	-0.0432481 20.2271 	1.13913 	-0.0421764 20.2409 	1.2085 	-0.041075 20.2554 	1.28095 	-0.0399427 20.1735 	1.04144 	-0.0284858 20.1327 	1.27171 	-0.0170535 20.1424 	1.37444 	-0.0159834 20.1528 	1.48407 	-0.0148542 20.1638 	1.60104 	-0.0136618 20.0933 	0.856227 	-0.0206398 20.0133 	1.56571 	0.00314316 20.0129 	1.66552 	0.00402798 20.0128 	1.71427 	0.00445476 20.0128 	1.71578 	0.00445869 20.0165 	0.765758 	-0.00403704 19.8653 	1.4817 	0.0130778 19.865 	1.48554 	0.0131118 19.8646 	1.48939 	0.0131458 19.8643 	1.49326 	0.0131799 19.8401 	0.672098 	0.041025 19.7092 	1.24289 	0.0130153 19.7085 	1.24607 	0.0130486 19.7077 	1.24925 	0.0130819 19.707 	1.25244 	0.0131153 19.7779 	0.580642 	0.0416693 19.5249 	1.13411 	0.016543 19.5234 	1.13775 	0.0165962 19.5219 	1.14141 	0.0166496 19.5203 	1.14508 	0.0167031 19.8189 	0.505365 	0.0126832 19.519 	0.707831 	0.0197759 19.5154 	0.713177 	0.0199252 19.5117 	0.718564 	0.0200757 19.508 	0.723992 	0.0202274 19.6473 	0.259655 	0.0417383 19.6411 	0.390755 	0.0115528 19.6396 	0.392396 	0.0116013 19.6381 	0.394045 	0.0116501 19.6366 	0.3957 	0.011699 19.8931 	0.148137 	0.00176554 19.7592 	0.206756 	0.00189421 19.759 	0.206896 	0.00189549 19.7588 	0.207035 	0.00189677 19.7587 	0.207175 	0.00189805 19.888 	0.0562355 	0.00126589 19.8576 	0.118323 	-0.00496579 19.8579 	0.118115 	-0.00495707 19.8581 	0.117908 	-0.00494836 19.8584 	0.117701 	-0.00493966 19.9661 	0.0518944 	-0.0122038 19.9511 	0.069143 	-0.00842086 19.9512 	0.0689356 	-0.0083956 19.9514 	0.0687287 	-0.00837041 19.9515 	0.0685225 	-0.00834529 20.0059 	0.03033 	-0.0143026 20.0372 	0.0393565 	-0.00934942 20.0371 	0.0392239 	-0.00931792 20.037 	0.0390917 	-0.00928652 20.0368 	0.03896 	-0.00925523 20.0429 	0.0169146 	-0.0141217 20.112 	0.0214634 	-0.00890549 20.1116 	0.0213936 	-0.00887654 20.1112 	0.021324 	-0.00884768 20.1109 	0.0212547 	-0.00881891 20.0753 	0.00856342 	-0.0128105 20.1742 	0.00921505 	-0.00797773 20.1737 	0.00918788 	-0.00795421 20.1732 	0.00916079 	-0.00793075 20.1726 	0.00913377 	-0.00790737 20.1024 	0.00265858 	-0.0110801 20.2243 	0.000130597 	-0.00681164 20.2237 	0.000130265 	-0.0067943 20.2231 	0.000129933 	-0.00677699 20.2226 	0.000129602 	-0.00675973 20.12 	-0.00238251 	-0.00859326 20.2627 	-0.00806399 	-0.00555812 20.2621 	-0.00804706 	-0.00554644 20.2616 	-0.00803016 	-0.0055348 20.261 	-0.00801329 	-0.00552317 20.14 	-0.00654993 	-0.00710577 20.2896 	-0.0143592 	-0.0041518 20.2891 	-0.0143364 	-0.00414523 20.2886 	-0.0143137 	-0.00413867 20.2882 	-0.0142911 	-0.00413212 20.1478 	-0.00753203 	-0.00487775 20.3057 	-0.0195483 	-0.00276898 20.3054 	-0.0195275 	-0.00276603 20.305 	-0.0195068 	-0.0027631 20.3047 	-0.0194861 	-0.00276016 20.1555 	-0.01224 	-0.00310612 20.3126 	-0.0223428 	-0.0015438 20.3125 	-0.0223296 	-0.00154288 20.3123 	-0.0223163 	-0.00154197 20.3121 	-0.022303 	-0.00154105 20.156 	-0.0101258 	-0.0013998 20.3126 	-0.0236125 	-0.000435805 20.3125 	-0.0236086 	-0.000435731 20.3125 	-0.0236046 	-0.000435658 20.3124 	-0.0236006 	-0.000435584 20.1553 	-0.0136165 	-2.31193e-05 20.3062 	-0.0250893 	0.000537175 20.3063 	-0.0250945 	0.000537287 20.3064 	-0.0250997 	0.000537399 20.3064 	-0.0251049 	0.00053751 20.1511 	-0.0146506 	0.00116394 20.2943 	-0.0273882 	0.00126312 20.2944 	-0.0274016 	0.00126374 20.2946 	-0.027415 	0.00126436 20.2947 	-0.0274285 	0.00126498 20.1444 	-0.0163701 	0.00196804 20.2782 	-0.0312145 	0.00158341 20.2783 	-0.0312336 	0.00158438 20.2785 	-0.0312528 	0.00158535 20.2787 	-0.031272 	0.00158632 20.1359 	-0.0190077 	0.00237129 20.259 	-0.0363439 	0.0016509 20.2592 	-0.0363671 	0.00165195 20.2593 	-0.0363904 	0.00165301 20.2595 	-0.0364136 	0.00165406 20.1259 	-0.0222408 	0.00257682 20.2372 	-0.0421944 	0.00165853 20.2374 	-0.0422214 	0.0016596 20.2375 	-0.0422484 	0.00166066 20.2377 	-0.0422755 	0.00166172 20.1113 	-0.0189381 	0.00214404 20.2123 	-0.0488276 	0.00172111 20.2124 	-0.04886 	0.00172225 20.2125 	-0.0488924 	0.00172339 20.2127 	-0.0489248 	0.00172453 20.1012 	-0.0301821 	0.00304952 20.1831 	-0.0562066 	0.00188736 20.1833 	-0.0562473 	0.00188872 20.1834 	-0.0562881 	0.00189009 20.1835 	-0.0563289 	0.00189146 20.0857 	-0.0349649 	0.00343838 20.1488 	-0.0645709 	0.0020618 20.1489 	-0.0646219 	0.00206343 20.149 	-0.0646729 	0.00206506 20.1491 	-0.064724 	0.00206669 20.0674 	-0.0405202 	0.00387925 20.1077 	-0.0743221 	0.0023232 20.1078 	-0.0743882 	0.00232527 20.1079 	-0.0744543 	0.00232733 20.108 	-0.0745205 	0.0023294 20.0456 	-0.047426 	0.00432779 20.0584 	-0.0865606 	0.00253087 20.0584 	-0.0866444 	0.00253332 20.0585 	-0.0867282 	0.00253577 20.0585 	-0.0868121 	0.00253822 20.0196 	-0.0561278 	0.00461611 19.9991 	-0.102069 	0.0025977 19.9991 	-0.10217 	0.00260028 19.9991 	-0.102271 	0.00260286 19.9991 	-0.102373 	0.00260544 19.9781 	-0.0420052 	0.00271373 19.9289 	-0.124098 	0.00214722 19.9288 	-0.1242 	0.00214898 19.9287 	-0.124302 	0.00215074 19.9287 	-0.124404 	0.0021525 19.954 	-0.084291 	0.00349363 19.8483 	-0.15442 	0.000752146 19.8482 	-0.154464 	0.000752362 19.8482 	-0.154508 	0.000752578 19.8482 	-0.154553 	0.000752794 19.8934 	-0.0629899 	-0.00216565 19.7614 	-0.19844 	-0.00240034 19.7616 	-0.198258 	-0.00239813 19.7619 	-0.198076 	-0.00239593 19.7621 	-0.197894 	-0.00239373 19.8785 	-0.138588 	-0.00454843 19.6765 	-0.259551 	-0.00826718 19.6775 	-0.258725 	-0.00824088 19.6786 	-0.257902 	-0.00821467 19.6796 	-0.257082 	-0.00818854 19.8478 	-0.181792 	-0.013448 19.6057 	-0.347751 	-0.0178528 19.6084 	-0.345317 	-0.0177278 19.6112 	-0.3429 	-0.0176037 19.6139 	-0.340501 	-0.0174805 19.8304 	-0.240181 	-0.0257284 19.5565 	-0.47462 	-0.0304071 19.562 	-0.468723 	-0.0300293 19.5674 	-0.462901 	-0.0296563 19.5728 	-0.457153 	-0.029288 19.8303 	-0.326294 	-0.0407993 19.5289 	-0.688467 	-0.0445571 19.5381 	-0.674987 	-0.0436847 19.5472 	-0.661776 	-0.0428297 19.556 	-0.648829 	-0.0419918 19.842 	-0.475182 	-0.0524531 19.5167 	-1.09296 	-0.0525155 19.5292 	-1.0648 	-0.0511621 19.5413 	-1.03737 	-0.0498444 19.5531 	-1.01067 	-0.0485613 19.7757 	-0.759062 	-0.0909619 19.6941 	-1.70285 	-0.0479938 19.6981 	-1.68019 	-0.0473553 19.7021 	-1.65784 	-0.0467254 19.7151 	-1.59485 	-0.0466564 19.8628 	-0.825136 	-0.0817022 19.8943 	-1.56043 	-0.0516849 19.9107 	-1.38704 	-0.051296 19.9256 	-1.22869 	-0.0508727 19.9391 	-1.08408 	-0.050419 20.0448 	-0.958891 	-0.0521363 20.0457 	-1.0767 	-0.051869 20.0452 	-1.04064 	-0.0517159 20.0448 	-1.00537 	-0.0515627 20.0444 	-0.970856 	-0.0514095 20.044 	-0.943216 	-0.0512841 20.0705 	-1.04694 	-0.0475223 20.099 	-1.16015 	-0.0435865 20.1297 	-1.28364 	-0.0394589 20.1627 	-1.41824 	-0.035121 20.2095 	-1.02585 	-0.02417 20.4523 	-2.01713 	-0.0255879 20.551 	-2.32084 	-0.0179382 20.5529 	-2.32299 	-0.0174432 20.5495 	-2.30884 	-0.0173369 20.3817 	-1.13371 	-0.00063387 21.0584 	-3.107 	-0.00867948 21.0552 	-3.09764 	-0.00865332 21.052 	-3.0883 	-0.00862723 21.0488 	-3.07899 	-0.00860122 21.0273 	-2.9628 	-0.0388255 22.0784 	-4.51093 	-0.0105751 22.071 	-4.49486 	-0.0105374 22.0636 	-4.47883 	-0.0104998 21.9639 	-4.22446 	-0.00522832 21.0401 	-1.84032 	0.0469568 23.1391 	-4.9715 	-0.0156571 24.0272 	-6.29294 	-0.0430637 23.9749 	-6.21135 	-0.0424609 23.2345 	-4.94723 	-0.015741 21.5396 	-2.03998 	0.047966 23.1758 	-3.43203 	0.019739 23.3243 	-3.20944 	0.0226983 22.9882 	-2.8385 	0.030416 22.6825 	-2.50018 	0.0376474 22.6442 	-2.45768 	0.038584 22.6477 	-2.48017 	0.0374985 22.6509 	-2.50246 	0.036401 22.6538 	-2.52455 	0.0352916 22.6563 	-2.54642 	0.0341703 22.1524 	-1.99201 	0.045589 23.0288 	-2.60573 	0.029717 23.1825 	-2.65658 	0.0255962 23.3339 	-2.70457 	0.0213962 22.3773 	-1.90415 	0.0361393 21.4874 	-0.955407 	0.0689978 22.4221 	-1.03248 	0.0354645 23.4399 	-1.53633 	0.0161566 24.5551 	-2.10381 	-0.00492581 24.4585 	-2.05486 	-0.00317265 21.716 	-0.65715 	0.0494809 24.609 	-1.10082 	0.0189066 25.9562 	-1.30671 	0.00454777 25.9624 	-1.30808 	0.00455253 24.6835 	-0.984701 	0.00948172 21.7978 	-0.255068 	0.0206019 24.6504 	-0.235273 	0.00607941 26.0046 	-0.225556 	-0.000850347 26.0035 	-0.225512 	-0.000850184 24.6649 	-0.115958 	-0.00125676 21.7898 	0.119376 	-0.00213034 24.6112 	0.671897 	0.0033867 25.9265 	0.929219 	0.00595254 25.9345 	0.930473 	0.00596057 24.5998 	0.788746 	-0.0046007 21.7736 	0.487461 	-0.0268028 24.557 	1.50424 	-0.0100315 25.7928 	1.95557 	-0.00261551 25.7893 	1.95438 	-0.00261392 24.482 	1.61125 	-0.0168032 21.6677 	0.871323 	-0.0471663 24.2041 	2.54662 	0.0121312 24.7115 	2.88046 	0.0234974 23.4827 	2.06895 	-0.00517319 22.3837 	1.36608 	-0.0308633 21.434 	1.13824 	-0.0633473 22.1381 	2.05595 	-0.0369454 23.0371 	2.9637 	-0.0313315 22.8421 	2.88516 	-0.0406239 22.6419 	2.79961 	-0.0496705 22.3859 	2.66122 	-0.0591279 22.4156 	2.70379 	-0.05854 22.393 	2.68978 	-0.0583489 22.3704 	2.67578 	-0.0581577 22.3478 	2.66179 	-0.0579663 22.3256 	2.64802 	-0.0577776 22.0406 	2.98075 	-0.0237763 22.7674 	3.90979 	-0.00325275 23.6498 	5.00416 	0.0189417 23.7259 	5.10126 	0.0204599 21.2679 	2.0542 	-0.0415952 22.1225 	4.28798 	0.00322374 22.2942 	4.73194 	0.0118138 22.303 	4.75017 	0.0118593 22.3119 	4.76845 	0.011905 21.1128 	3.07626 	0.0273805 21.1267 	3.21383 	0.00438062 21.1284 	3.21866 	0.0043872 21.1301 	3.22349 	0.00439379 21.1318 	3.22833 	0.00440039 20.3988 	1.16197 	-0.00304201 20.5792 	2.39122 	0.0134255 20.5819 	2.40235 	0.013488 20.5846 	2.41353 	0.0135507 20.5873 	2.42475 	0.0136138 20.1654 	1.13936 	0.0415976 20.2548 	1.759 	0.0260444 20.2309 	1.59317 	0.0311226 20.2092 	1.44271 	0.0359158 20.1895 	1.30632 	0.040452 20.0842 	1.0508 	0.0464719 20.0755 	1.04215 	0.0467382 20.0668 	1.03347 	0.0470045 20.0581 	1.02477 	0.0472709 20.0495 	1.01605 	0.0475374 20.04 	0.98266 	0.0486927 20.0224 	1.10088 	0.0482887 20.0039 	1.20686 	0.0488596 19.9837 	1.32127 	0.0494242 19.9616 	1.44477 	0.0499812 19.8771 	0.865426 	0.0738177 19.7831 	1.43271 	0.0507971 19.7516 	1.53902 	0.0509613 19.7176 	1.65259 	0.0510791 19.6837 	1.76612 	0.0512003 19.8661 	0.873006 	0.056952 19.5387 	1.58014 	0.0437116 19.5331 	1.59912 	0.0442367 19.5275 	1.61834 	0.0447683 19.5218 	1.63779 	0.0453063 19.6885 	0.719476 	0.0889401 19.3512 	1.10528 	0.0552756 19.3041 	1.18049 	0.0564746 19.283 	1.2159 	0.0580263 19.2631 	1.24976 	0.059642 19.7265 	0.543496 	0.0670845 19.2862 	0.796919 	0.0456762 19.2718 	0.813031 	0.0465996 19.257 	0.82948 	0.0475424 19.242 	0.846274 	0.048505 19.6011 	0.23807 	0.077624 19.3351 	0.533453 	0.0358249 19.3256 	0.541034 	0.036334 19.316 	0.548726 	0.0368506 19.3063 	0.556532 	0.0373748 19.7191 	0.276477 	0.0399686 19.3592 	0.389038 	0.027843 19.3526 	0.393044 	0.0281297 19.3459 	0.397092 	0.0284194 19.3392 	0.401183 	0.0287122 19.6556 	0.118501 	0.0382264 19.3587 	0.278937 	0.0197353 19.3543 	0.280866 	0.0198718 19.3498 	0.28281 	0.0200093 19.3453 	0.284767 	0.0201478 19.6961 	0.152419 	0.0237593 19.3624 	0.236827 	0.0132432 19.3596 	0.23789 	0.0133026 19.3567 	0.238958 	0.0133623 19.3538 	0.24003 	0.0134223 19.7154 	0.13414 	0.0189368 19.5529 	0.0897025 	0.00922887 19.5502 	0.090241 	0.00928427 19.5475 	0.0907829 	0.00934002 19.5448 	0.091328 	0.00939611 19.8231 	0.00186446 	0.010083 19.7072 	0.0472618 	0.00431518 19.7064 	0.0473894 	0.00432683 19.7056 	0.0475174 	0.00433851 19.7049 	0.0476457 	0.00435023 19.8808 	0.0333998 	0.00414757 19.7771 	0.0297477 	0.00203196 19.7768 	0.0297849 	0.0020345 19.7766 	0.0298221 	0.00203704 19.7763 	0.0298594 	0.00203959 19.8991 	0.00162871 	0.0020378 19.8175 	0.0207075 	0.000861542 19.8174 	0.0207184 	0.000861994 19.8173 	0.0207293 	0.000862447 19.8172 	0.0207402 	0.0008629 19.9157 	0.00137533 	0.000789733 19.8455 	0.0152518 	0.00027728 19.8455 	0.0152544 	0.000277327 19.8455 	0.015257 	0.000277373 19.8454 	0.0152595 	0.00027742 19.928 	0.0011513 	0.000177128 19.8671 	0.0116169 	-1.18994e-05 19.8671 	0.0116168 	-1.18993e-05 19.8671 	0.0116167 	-1.18992e-05 19.8671 	0.0116166 	-1.18991e-05 19.9391 	0.0091413 	-0.000150492 19.8846 	0.00905318 	-0.000152879 19.8846 	0.00905234 	-0.000152865 19.8846 	0.0090515 	-0.000152851 19.8846 	0.00905067 	-0.000152836 19.9458 	0.000786943 	-0.000273011 19.8989 	0.00718138 	-0.000218847 19.8989 	0.00718043 	-0.000218818 19.899 	0.00717948 	-0.000218789 19.899 	0.00717853 	-0.000218761 19.9524 	0.000645161 	-0.00034018 19.9109 	0.00577978 	-0.000246074 19.9109 	0.00577892 	-0.000246037 19.9109 	0.00577806 	-0.000246001 19.9109 	0.0057772 	-0.000245964 19.9585 	0.00464231 	-0.000368922 19.921 	0.00470851 	-0.000252825 19.921 	0.00470779 	-0.000252786 19.921 	0.00470708 	-0.000252748 19.921 	0.00470636 	-0.000252709 19.963 	0.00380859 	-0.000369216 19.9296 	0.00387538 	-0.000248679 19.9296 	0.00387479 	-0.000248642 19.9296 	0.00387421 	-0.000248605 19.9296 	0.00387363 	-0.000248567 19.9666 	0.000349741 	-0.00035736 19.9369 	0.003218 	-0.00023883 19.9369 	0.00321753 	-0.000238796 19.937 	0.00321707 	-0.000238761 19.937 	0.00321661 	-0.000238727 19.97 	0.000284182 	-0.000341127 19.9433 	0.00269299 	-0.000226118 19.9433 	0.00269262 	-0.000226087 19.9433 	0.00269226 	-0.000226056 19.9433 	0.00269189 	-0.000226026 19.973 	0.000230747 	-0.000321791 19.9488 	0.00226921 	-0.000212131 19.9488 	0.00226892 	-0.000212104 19.9488 	0.00226863 	-0.000212076 19.9488 	0.00226834 	-0.000212049 19.9758 	0.00189197 	-0.000300731 19.9537 	0.00192387 	-0.000197828 19.9537 	0.00192364 	-0.000197804 19.9537 	0.00192341 	-0.000197781 19.9537 	0.00192318 	-0.000197757 19.978 	0.00161666 	-0.000279978 19.9579 	0.00164005 	-0.000183754 19.9579 	0.00163987 	-0.000183734 19.9579 	0.00163969 	-0.000183714 19.9579 	0.0016395 	-0.000183693 19.9799 	0.000122815 	-0.00026042 19.9617 	0.00140499 	-0.000170224 19.9617 	0.00140485 	-0.000170206 19.9617 	0.0014047 	-0.000170189 19.9617 	0.00140456 	-0.000170171 19.9818 	0.00119931 	-0.000240585 19.965 	0.00120901 	-0.000157417 19.965 	0.00120889 	-0.000157402 19.965 	0.00120878 	-0.000157387 19.965 	0.00120866 	-0.000157372 19.9833 	0.00104012 	-0.000222475 19.9679 	0.00104457 	-0.000