# vtk DataFile Version 2.0
track0
ASCII
DATASET POLYDATA
POINTS 15775 float
-1.001 -0.05 0.0011
-1.0008 -0.05 0.0011
-1.0006 -0.05 0.00110001
-1.0004 -0.05 0.00110001
-1.0002 -0.05 0.00110001
-1 -0.05 0.00110002
-0.9875 -0.0500001 0.00110024
-0.975 -0.0500002 0.00110005
-0.9625 -0.0500003 0.00109987
-0.95 -0.0500004 0.00109968
-0.9375 -0.0500005 0.00109949
-0.925 -0.0500006 0.00109968
-0.9125 -0.0500007 0.00109974
-0.9 -0.0500008 0.0010998
-0.8875 -0.0500009 0.00109986
-0.875 -0.050001 0.00109992
-0.8625 -0.050001 0.0011
-0.85 -0.0500011 0.00110003
-0.8375 -0.0500013 0.00110005
-0.825 -0.0500014 0.00110008
-0.8125 -0.0500015 0.0011001
-0.8 -0.0500016 0.00110012
-0.7875 -0.0500017 0.00110012
-0.775 -0.0500019 0.00110011
-0.7625 -0.050002 0.00110011
-0.75 -0.0500021 0.0011001
-0.7375 -0.0500021 0.00110009
-0.725 -0.0500022 0.00110007
-0.7125 -0.0500024 0.00110005
-0.7 -0.0500025 0.00110003
-0.6875 -0.0500026 0.00110001
-0.675 -0.0500026 0.00109997
-0.6625 -0.0500027 0.00109994
-0.65 -0.0500029 0.00109991
-0.6375 -0.050003 0.00109989
-0.625 -0.0500031 0.00109986
-0.6125 -0.0500032 0.00109981
-0.6 -0.0500033 0.00109977
-0.5875 -0.0500034 0.00109974
-0.575 -0.0500036 0.00109971
-0.5625 -0.0500037 0.00109967
-0.55 -0.0500038 0.00109962
-0.5375 -0.0500039 0.00109958
-0.525 -0.050004 0.00109954
-0.5125 -0.0500041 0.0010995
-0.5 -0.0500043 0.00109946
-0.4875 -0.0500043 0.0010994
-0.475 -0.0500044 0.00109936
-0.4625 -0.0500045 0.00109932
-0.45 -0.0500046 0.00109927
-0.4375 -0.0500047 0.00109923
-0.425 -0.0500047 0.00109917
-0.4125 -0.0500048 0.00109912
-0.4 -0.0500049 0.00109908
-0.3875 -0.050005 0.00109903
-0.375 -0.0500051 0.00109899
-0.3625 -0.0500051 0.00109892
-0.35 -0.0500052 0.00109887
-0.3375 -0.0500053 0.00109882
-0.325 -0.0500054 0.00109878
-0.3125 -0.0500055 0.00109873
-0.3 -0.0500056 0.00109866
-0.2875 -0.0500057 0.00109861
-0.275 -0.0500058 0.00109856
-0.2625 -0.0500059 0.00109851
-0.25 -0.050006 0.00109846
-0.2375 -0.0500061 0.00109839
-0.225 -0.0500062 0.00109834
-0.2125 -0.0500063 0.00109829
-0.2 -0.0500064 0.00109824
-0.1875 -0.0500065 0.00109819
-0.175 -0.0500065 0.00109811
-0.1625 -0.0500066 0.00109806
-0.15 -0.0500067 0.00109801
-0.1375 -0.0500068 0.00109795
-0.125 -0.0500069 0.0010979
-0.1125 -0.050007 0.00109782
-0.1 -0.050007 0.00109777
-0.0875 -0.0500071 0.00109772
-0.075 -0.0500072 0.00109766
-0.0625 -0.0500073 0.00109761
-0.05 -0.0500074 0.00109753
-0.0375 -0.0500075 0.00109748
-0.025 -0.0500076 0.00109742
-0.0125 -0.0500076 0.00109737
3.2168e-12 -0.0500077 0.00109731
0.0125 -0.0500077 0.00109723
0.025 -0.0500078 0.00109718
0.0375 -0.0500079 0.00109712
0.05 -0.050008 0.00109707
0.0625 -0.050008 0.00109701
0.075 -0.050008 0.00109693
0.0875 -0.0500081 0.00109687
0.1 -0.0500082 0.00109682
0.1125 -0.0500083 0.00109676
0.125 -0.0500084 0.00109671
0.1375 -0.0500084 0.00109663
0.15 -0.0500084 0.00109657
0.1625 -0.0500085 0.00109651
0.175 -0.0500086 0.00109646
0.1875 -0.0500087 0.0010964
0.2 -0.0500087 0.00109632
0.2125 -0.0500088 0.00109626
0.225 -0.0500089 0.00109621
0.2375 -0.0500089 0.00109615
0.25 -0.050009 0.00109609
0.2625 -0.050009 0.00109601
0.275 -0.0500091 0.00109595
0.2875 -0.0500091 0.0010959
0.3 -0.0500092 0.00109584
0.3125 -0.0500093 0.00109579
0.325 -0.0500093 0.0010957
0.3375 -0.0500093 0.00109565
0.35 -0.0500094 0.00109559
0.3625 -0.0500095 0.00109553
0.375 -0.0500095 0.00109548
0.3875 -0.0500096 0.0010954
0.4 -0.0500097 0.00109534
0.4125 -0.0500097 0.00109529
0.425 -0.0500098 0.00109523
0.4375 -0.0500098 0.00109517
0.45 -0.0500099 0.00109509
0.4625 -0.05001 0.00109504
0.475 -0.05001 0.00109498
0.4875 -0.0500101 0.00109493
0.5 -0.0500101 0.00109487
0.5125 -0.0500101 0.00109479
0.525 -0.0500102 0.00109474
0.5375 -0.0500102 0.00109469
0.55 -0.0500103 0.00109463
0.5625 -0.0500104 0.00109458
0.575 -0.0500104 0.0010945
0.5875 -0.0500104 0.00109445
0.6 -0.0500105 0.00109439
0.6125 -0.0500105 0.00109434
0.625 -0.0500106 0.00109429
0.6375 -0.0500106 0.00109421
0.65 -0.0500106 0.00109416
0.6625 -0.0500107 0.00109411
0.675 -0.0500107 0.00109406
0.6875 -0.0500108 0.001094
0.7 -0.0500108 0.00109393
0.7125 -0.0500108 0.00109388
0.725 -0.0500109 0.00109383
0.7375 -0.0500109 0.00109378
0.75 -0.050011 0.00109373
0.7625 -0.050011 0.00109366
0.775 -0.0500111 0.00109361
0.7875 -0.0500111 0.00109356
0.8 -0.0500112 0.00109351
0.8125 -0.0500112 0.00109347
0.825 -0.0500112 0.0010934
0.8375 -0.0500112 0.00109335
0.85 -0.0500113 0.00109331
0.8625 -0.0500113 0.00109326
0.875 -0.0500113 0.00109321
0.8875 -0.0500114 0.00109315
0.9 -0.0500114 0.0010931
0.9125 -0.0500114 0.00109306
0.925 -0.0500115 0.00109302
0.9375 -0.0500115 0.00109297
0.95 -0.0500116 0.00109291
0.9625 -0.0500116 0.00109287
0.975 -0.0500116 0.00109283
0.9875 -0.0500116 0.00109279
1 -0.0500117 0.00109275
1.0125 -0.0500117 0.00109269
1.025 -0.0500117 0.00109265
1.0375 -0.0500117 0.00109261
1.05 -0.0500117 0.00109257
1.0625 -0.0500118 0.00109253
1.075 -0.0500118 0.00109248
1.0875 -0.0500118 0.00109244
1.1 -0.0500118 0.00109241
1.1125 -0.0500118 0.00109237
1.125 -0.0500119 0.00109234
1.1375 -0.0500119 0.00109229
1.15 -0.0500119 0.00109226
1.1625 -0.0500119 0.00109222
1.175 -0.0500119 0.00109219
1.1875 -0.0500119 0.00109216
1.2 -0.050012 0.00109211
1.2125 -0.050012 0.00109208
1.225 -0.050012 0.00109205
1.2375 -0.050012 0.00109203
1.25 -0.050012 0.001092
1.2625 -0.050012 0.00109196
1.275 -0.050012 0.00109193
1.2875 -0.050012 0.00109191
1.3 -0.050012 0.00109188
1.3125 -0.0500121 0.00109185
1.325 -0.0500121 0.00109182
1.3375 -0.0500121 0.0010918
1.35 -0.0500121 0.00109178
1.3625 -0.0500121 0.00109175
1.375 -0.0500121 0.00109173
1.3875 -0.0500121 0.0010917
1.4 -0.0500121 0.00109168
1.4125 -0.0500121 0.00109167
1.425 -0.0500121 0.00109165
1.4375 -0.0500121 0.00109163
1.45 -0.0500121 0.0010916
1.4625 -0.0500121 0.00109159
1.475 -0.0500121 0.00109158
1.4875 -0.0500121 0.00109156
1.5 -0.0500121 0.00109155
1.5125 -0.0500121 0.00109153
1.525 -0.0500121 0.00109152
1.5375 -0.0500121 0.00109151
1.55 -0.0500121 0.0010915
1.5625 -0.0500121 0.00109149
1.575 -0.0500121 0.00109148
1.5875 -0.0500121 0.00109147
1.6 -0.0500121 0.00109146
1.6125 -0.0500121 0.00109146
1.625 -0.050012 0.00109145
1.6375 -0.050012 0.00109144
1.65 -0.050012 0.00109144
1.6625 -0.050012 0.00109144
1.675 -0.050012 0.00109144
1.6875 -0.050012 0.00109143
1.7 -0.050012 0.00109143
1.7125 -0.050012 0.00109144
1.725 -0.050012 0.00109144
1.7375 -0.0500119 0.00109144
1.75 -0.0500119 0.00109144
1.7625 -0.0500119 0.00109145
1.775 -0.0500119 0.00109145
1.7875 -0.0500119 0.00109146
1.8 -0.0500118 0.00109147
1.8125 -0.0500118 0.00109147
1.825 -0.0500118 0.00109148
1.8375 -0.0500118 0.00109149
1.85 -0.0500118 0.0010915
1.8625 -0.0500117 0.00109151
1.875 -0.0500117 0.00109152
1.8875 -0.0500117 0.00109154
1.9 -0.0500117 0.00109156
1.9125 -0.0500116 0.00109157
1.925 -0.0500116 0.00109159
1.9375 -0.0500116 0.0010916
1.95 -0.0500116 0.00109162
1.9625 -0.0500115 0.00109164
1.975 -0.0500115 0.00109166
1.9875 -0.0500115 0.00109168
2 -0.0500114 0.0010917
2.0125 -0.0500114 0.00109173
2.025 -0.0500114 0.00109175
2.0375 -0.0500114 0.00109177
2.05 -0.0500113 0.00109179
2.0625 -0.0500113 0.00109182
2.075 -0.0500113 0.00109185
2.0875 -0.0500113 0.00109188
2.1 -0.0500112 0.0010919
2.1125 -0.0500112 0.00109193
2.125 -0.0500111 0.00109196
2.1375 -0.0500111 0.001092
2.15 -0.0500111 0.00109203
2.1625 -0.0500111 0.00109206
2.175 -0.050011 0.00109209
2.1875 -0.050011 0.00109212
2.2 -0.0500109 0.00109217
2.2125 -0.0500109 0.0010922
2.225 -0.0500108 0.00109223
2.2375 -0.0500108 0.00109227
2.25 -0.0500107 0.0010923
2.2625 -0.0500107 0.00109235
2.275 -0.0500107 0.00109239
2.2875 -0.0500106 0.00109243
2.3 -0.0500106 0.00109247
2.3125 -0.0500105 0.0010925
2.325 -0.0500105 0.00109256
2.3375 -0.0500105 0.0010926
2.35 -0.0500104 0.00109264
2.3625 -0.0500104 0.00109268
2.375 -0.0500103 0.00109272
2.3875 -0.0500103 0.00109279
2.4 -0.0500102 0.00109283
2.4125 -0.0500102 0.00109287
2.425 -0.0500101 0.00109292
2.4375 -0.0500101 0.00109296
2.45 -0.05001 0.00109303
2.4625 -0.05001 0.00109308
2.475 -0.0500099 0.00109312
2.4875 -0.0500099 0.00109317
2.5 -0.0500098 0.00109322
2.5125 -0.0500098 0.00109329
2.525 -0.0500097 0.00109334
2.5375 -0.0500097 0.00109339
2.55 -0.0500096 0.00109344
2.5625 -0.0500096 0.00109349
2.575 -0.0500096 0.00109357
2.5875 -0.0500095 0.00109362
2.6 -0.0500094 0.00109367
2.6125 -0.0500094 0.00109373
2.625 -0.0500093 0.00109378
2.6375 -0.0500093 0.00109386
2.65 -0.0500092 0.00109391
2.6625 -0.0500092 0.00109397
2.675 -0.0500091 0.00109403
2.6875 -0.050009 0.00109408
2.7 -0.050009 0.00109416
2.7125 -0.0500089 0.00109422
2.725 -0.0500089 0.00109428
2.7375 -0.0500088 0.00109434
2.75 -0.0500087 0.0010944
2.7625 -0.0500087 0.00109448
2.775 -0.0500086 0.00109454
2.7875 -0.0500085 0.0010946
2.8 -0.0500085 0.00109466
2.8125 -0.0500084 0.00109472
2.825 -0.0500084 0.00109481
2.8375 -0.0500083 0.00109488
2.85 -0.0500082 0.00109494
2.8625 -0.0500082 0.001095
2.875 -0.0500081 0.00109506
2.8875 -0.050008 0.00109516
2.9 -0.050008 0.00109522
2.9125 -0.0500079 0.00109528
2.925 -0.0500078 0.00109535
2.9375 -0.0500078 0.00109541
2.95 -0.0500078 0.00109551
2.9625 -0.0500077 0.00109557
2.975 -0.0500076 0.00109564
2.9875 -0.0500075 0.0010957
3 -0.0500075 0.00109577
3.0125 -0.0500075 0.00109587
3.025 -0.0500074 0.00109593
3.0375 -0.0500073 0.001096
3.05 -0.0500072 0.00109607
3.0625 -0.0500072 0.00109613
3.075 -0.0500072 0.00109624
3.0875 -0.0500071 0.0010963
3.1 -0.050007 0.00109637
3.1125 -0.050007 0.00109644
3.125 -0.0500069 0.00109651
3.1375 -0.0500069 0.00109661
3.15 -0.0500068 0.00109668
3.1625 -0.0500067 0.00109675
3.175 -0.0500067 0.00109682
3.1875 -0.0500066 0.00109689
3.2 -0.0500065 0.00109699
3.2125 -0.0500064 0.00109706
3.225 -0.0500064 0.00109713
3.2375 -0.0500063 0.0010972
3.25 -0.0500062 0.00109727
3.2625 -0.0500062 0.00109737
3.275 -0.0500061 0.00109744
3.2875 -0.0500061 0.00109752
3.3 -0.050006 0.00109759
3.3125 -0.0500059 0.00109766
3.325 -0.0500059 0.00109776
3.3375 -0.0500058 0.00109783
3.35 -0.0500057 0.0010979
[...]
POINT_DATA 15775
 FIELD attributes 1
U 3 15775 float
20.0123 	-0.000168788 	0.000307005 20.0121 	-0.000166862 	0.000316808 20.0119 	-0.000164936 	0.000326611 20.0117 	-0.00016301 	0.000336414 20.0116 	-0.000161084 	0.000346217 20.0114 	-0.000159159 	0.000356021 20.0212 	-0.000175973 	-0.000298915 20.0212 	-0.000175943 	-0.000298865 20.0212 	-0.000175913 	-0.000298814 20.0212 	-0.000175883 	-0.000298763 20.0112 	-7.28265e-06 	0.000297319 20.0215 	-0.000184578 	9.59706e-05 20.0215 	-0.000184588 	9.59758e-05 20.0215 	-0.000184598 	9.59811e-05 20.0215 	-0.000184608 	9.59863e-05 20.0106 	-6.97764e-06 	0.000133669 20.0207 	-0.000192496 	4.11547e-05 20.0207 	-0.0001925 	4.11557e-05 20.0207 	-0.000192505 	4.11567e-05 20.0207 	-0.000192509 	4.11576e-05 20.0102 	-0.000188879 	2.40305e-05 20.0202 	-0.000196803 	-5.824e-06 20.0202 	-0.000196802 	-5.82398e-06 20.0202 	-0.000196802 	-5.82396e-06 20.0202 	-0.000196801 	-5.82394e-06 20.01 	-6.3467e-06 	-2.98606e-05 20.02 	-0.000197352 	-3.13169e-05 20.02 	-0.000197348 	-3.13164e-05 20.02 	-0.000197344 	-3.13158e-05 20.02 	-0.000197341 	-3.13153e-05 20.01 	-6.02163e-06 	-5.83992e-05 20.0199 	-0.000194843 	-4.59946e-05 20.0199 	-0.000194838 	-4.59934e-05 20.0199 	-0.000194833 	-4.59922e-05 20.0199 	-0.000194828 	-4.5991e-05 20.0099 	-0.000187201 	-7.56526e-05 20.0198 	-0.000190161 	-5.55127e-05 20.0198 	-0.000190155 	-5.55109e-05 20.0198 	-0.000190149 	-5.55092e-05 20.0198 	-0.000190143 	-5.55074e-05 20.0099 	-0.000181996 	-8.74856e-05 20.0199 	-0.000184144 	-6.23557e-05 20.0199 	-0.000184137 	-6.23535e-05 20.0199 	-0.000184131 	-6.23513e-05 20.0199 	-0.000184124 	-6.2349e-05 20.01 	-5.01649e-06 	-9.63898e-05 20.02 	-0.000177454 	-6.76391e-05 20.02 	-0.000177447 	-6.76365e-05 20.02 	-0.00017744 	-6.76339e-05 20.02 	-0.000177433 	-6.76314e-05 20.01 	-4.671e-06 	-0.000103407 20.0201 	-0.000170556 	-7.19313e-05 20.0201 	-0.000170549 	-7.19284e-05 20.0201 	-0.000170542 	-7.19254e-05 20.0201 	-0.000170535 	-7.19225e-05 20.0101 	-4.31975e-06 	-0.0001092 20.0203 	-0.000163732 	-7.5521e-05 20.0203 	-0.000163725 	-7.55177e-05 20.0203 	-0.000163718 	-7.55145e-05 20.0203 	-0.000163711 	-7.55112e-05 20.0102 	-0.000156338 	-0.000114015 20.0205 	-0.000157146 	-7.85835e-05 20.0205 	-0.000157139 	-7.858e-05 20.0205 	-0.000157132 	-7.85765e-05 20.0205 	-0.000157125 	-7.8573e-05 20.0103 	-0.000150256 	-0.0001182 20.0207 	-0.000150866 	-8.12089e-05 20.0207 	-0.000150859 	-8.12052e-05 20.0207 	-0.000150852 	-8.12014e-05 20.0207 	-0.000150845 	-8.11977e-05 20.0104 	-3.23534e-06 	-0.000121881 20.021 	-0.000144909 	-8.34557e-05 20.021 	-0.000144902 	-8.34517e-05 20.021 	-0.000144896 	-8.34478e-05 20.021 	-0.000144889 	-8.34438e-05 20.0106 	-0.00013906 	-0.000124845 20.0213 	-0.000139237 	-8.53566e-05 20.0213 	-0.00013923 	-8.53525e-05 20.0213 	-0.000139223 	-8.53483e-05 20.0213 	-0.000139216 	-8.53442e-05 20.0107 	-0.000133889 	-0.000127407 20.0216 	-0.000133806 	-8.69343e-05 20.0216 	-0.000133799 	-8.693e-05 20.0216 	-0.000133793 	-8.69257e-05 20.0216 	-0.000133786 	-8.69214e-05 20.0109 	-2.12002e-06 	-0.000129595 20.0219 	-0.000128554 	-8.81885e-05 20.0219 	-0.000128547 	-8.8184e-05 20.0219 	-0.000128541 	-8.81796e-05 20.0219 	-0.000128534 	-8.81752e-05 20.011 	-1.74187e-06 	-0.000131213 20.0222 	-0.000123454 	-8.91257e-05 20.0222 	-0.000123448 	-8.91212e-05 20.0222 	-0.000123442 	-8.91167e-05 20.0222 	-0.000123435 	-8.91122e-05 20.0112 	-1.36308e-06 	-0.000132356 20.0226 	-0.000118431 	-8.97386e-05 20.0226 	-0.000118425 	-8.9734e-05 20.0226 	-0.000118419 	-8.97294e-05 20.0226 	-0.000118413 	-8.97248e-05 20.0114 	-0.000114866 	-0.000132912 20.0229 	-0.000113448 	-9.00339e-05 20.0229 	-0.000113443 	-9.00293e-05 20.0229 	-0.000113437 	-9.00247e-05 20.0229 	-0.000113431 	-9.002e-05 20.0116 	-6.00458e-07 	-0.000133202 20.0233 	-0.000108466 	-8.99896e-05 20.0233 	-0.000108461 	-8.9985e-05 20.0233 	-0.000108455 	-8.99804e-05 20.0233 	-0.00010845 	-8.99757e-05 20.0118 	-2.18705e-07 	-0.000132882 20.0237 	-0.000103473 	-8.96053e-05 20.0237 	-0.000103467 	-8.96007e-05 20.0237 	-0.000103462 	-8.95962e-05 20.0237 	-0.000103457 	-8.95916e-05 20.0119 	-0.000101038 	-0.000131941 20.0241 	-9.84222e-05 	-8.88713e-05 20.0241 	-9.84173e-05 	-8.88668e-05 20.0241 	-9.84123e-05 	-8.88623e-05 20.0241 	-9.84073e-05 	-8.88578e-05 20.0121 	-9.63322e-05 	-0.000130594 20.0245 	-9.32988e-05 	-8.77862e-05 20.0245 	-9.32942e-05 	-8.77818e-05 20.0245 	-9.32895e-05 	-8.77774e-05 20.0245 	-9.32848e-05 	-8.7773e-05 20.0123 	9.04523e-07 	-0.000128822 20.0249 	-8.80909e-05 	-8.63351e-05 20.0249 	-8.80866e-05 	-8.63309e-05 20.0249 	-8.80822e-05 	-8.63266e-05 20.0249 	-8.80779e-05 	-8.63224e-05 20.0125 	1.26915e-06 	-0.0001264 20.0252 	-8.27923e-05 	-8.45144e-05 20.0252 	-8.27883e-05 	-8.45103e-05 20.0252 	-8.27844e-05 	-8.45062e-05 20.0252 	-8.27804e-05 	-8.45022e-05 20.0127 	1.62869e-06 	-0.000123429 20.0256 	-7.73765e-05 	-8.2317e-05 20.0256 	-7.73729e-05 	-8.23131e-05 20.0256 	-7.73693e-05 	-8.23093e-05 20.0256 	-7.73656e-05 	-8.23054e-05 20.0129 	-7.65457e-05 	-0.00011981 20.026 	-7.18462e-05 	-7.97545e-05 20.026 	-7.1843e-05 	-7.97509e-05 20.026 	-7.18397e-05 	-7.97472e-05 20.026 	-7.18364e-05 	-7.97436e-05 20.0131 	-7.13131e-05 	-0.000115742 20.0264 	-6.61991e-05 	-7.68208e-05 20.0264 	-6.61962e-05 	-7.68175e-05 20.0264 	-6.61933e-05 	-7.68141e-05 20.0264 	-6.61904e-05 	-7.68107e-05 20.0133 	2.66891e-06 	-0.000111213 20.0267 	-6.04615e-05 	-7.35131e-05 20.0267 	-6.04589e-05 	-7.35101e-05 20.0267 	-6.04564e-05 	-7.3507e-05 20.0267 	-6.04539e-05 	-7.35039e-05 20.0135 	-6.04983e-05 	-0.000105973 20.0271 	-5.46181e-05 	-6.9842e-05 20.0271 	-5.46159e-05 	-6.98392e-05 20.0271 	-5.46137e-05 	-6.98364e-05 20.0271 	-5.46115e-05 	-6.98336e-05 20.0136 	-5.4922e-05 	-0.000100294 20.0274 	-4.86756e-05 	-6.58254e-05 20.0274 	-4.86738e-05 	-6.5823e-05 20.0274 	-4.86719e-05 	-6.58205e-05 20.0274 	-4.86701e-05 	-6.5818e-05 20.0138 	3.60582e-06 	-9.4167e-05 20.0277 	-4.26424e-05 	-6.14579e-05 20.0277 	-4.26409e-05 	-6.14557e-05 20.0277 	-4.26394e-05 	-6.14536e-05 20.0277 	-4.26379e-05 	-6.14514e-05 20.0139 	3.89089e-06 	-8.74723e-05 20.028 	-3.65515e-05 	-5.67688e-05 20.028 	-3.65503e-05 	-5.6767e-05 20.028 	-3.65492e-05 	-5.67652e-05 20.028 	-3.6548e-05 	-5.67633e-05 20.0141 	4.15935e-06 	-8.03075e-05 20.0283 	-3.03796e-05 	-5.17662e-05 20.0283 	-3.03787e-05 	-5.17647e-05 20.0283 	-3.03778e-05 	-5.17631e-05 20.0283 	-3.03769e-05 	-5.17616e-05 20.0142 	-3.16632e-05 	-7.26577e-05 20.0285 	-2.41506e-05 	-4.64871e-05 20.0285 	-2.415e-05 	-4.64859e-05 20.0285 	-2.41494e-05 	-4.64847e-05 20.0285 	-2.41487e-05 	-4.64834e-05 20.0143 	4.64877e-06 	-6.46865e-05 20.0288 	-1.78752e-05 	-4.09352e-05 20.0288 	-1.78748e-05 	-4.09342e-05 20.0288 	-1.78744e-05 	-4.09333e-05 20.0288 	-1.7874e-05 	-4.09323e-05 20.0144 	4.87086e-06 	-5.62959e-05 20.029 	-1.15735e-05 	-3.51436e-05 20.029 	-1.15733e-05 	-3.51429e-05 20.029 	-1.15731e-05 	-3.51422e-05 20.029 	-1.15728e-05 	-3.51415e-05 20.0145 	-1.34854e-05 	-4.755e-05 20.0291 	-5.25188e-06 	-2.91364e-05 20.0291 	-5.25179e-06 	-2.9136e-05 20.0291 	-5.2517e-06 	-2.91355e-05 20.0291 	-5.25162e-06 	-2.9135e-05 20.0146 	-7.34795e-06 	-3.85427e-05 20.0293 	1.08344e-06 	-2.29544e-05 20.0293 	1.08343e-06 	-2.29541e-05 20.0293 	1.08342e-06 	-2.29538e-05 20.0293 	1.0834e-06 	-2.29535e-05 20.0147 	5.43798e-06 	-2.92855e-05 20.0294 	7.40934e-06 	-1.66137e-05 20.0294 	7.40927e-06 	-1.66136e-05 20.0294 	7.4092e-06 	-1.66134e-05 20.0294 	7.40912e-06 	-1.66133e-05 20.0147 	5.59746e-06 	-1.98143e-05 20.0295 	1.37087e-05 	-1.01512e-05 20.0295 	1.37086e-05 	-1.01512e-05 20.0295 	1.37085e-05 	-1.01511e-05 20.0295 	1.37084e-05 	-1.01511e-05 20.0148 	5.74556e-06 	-1.01872e-05 20.0295 	1.9989e-05 	-3.59491e-06 20.0295 	1.9989e-05 	-3.5949e-06 20.0295 	1.99889e-05 	-3.59489e-06 20.0295 	1.99889e-05 	-3.59489e-06 20.0148 	1.72191e-05 	-4.80955e-07 20.0296 	2.62271e-05 	3.00745e-06 20.0296 	2.62272e-05 	3.00746e-06 20.0296 	2.62272e-05 	3.00746e-06 20.0296 	2.62272e-05 	3.00747e-06 20.0148 	2.32913e-05 	9.30152e-06 20.0296 	3.24072e-05 	9.63321e-06 20.0296 	3.24074e-05 	9.63326e-06 20.0296 	3.24075e-05 	9.63331e-06 20.0296 	3.24077e-05 	9.63336e-06 20.0148 	6.13187e-06 	1.91423e-05 20.0295 	3.84876e-05 	1.62562e-05 20.0295 	3.8488e-05 	1.62564e-05 20.0295 	3.84884e-05 	1.62565e-05 20.0295 	3.84887e-05 	1.62567e-05 20.0147 	3.52296e-05 	2.88521e-05 20.0295 	4.44774e-05 	2.28385e-05 20.0295 	4.4478e-05 	2.28388e-05 20.0295 	4.44785e-05 	2.28391e-05 20.0295 	4.44791e-05 	2.28394e-05 20.0147 	4.10623e-05 	3.85211e-05 20.0293 	5.03586e-05 	2.93398e-05 20.0293 	5.03594e-05 	2.93402e-05 20.0293 	5.03603e-05 	2.93407e-05 20.0293 	5.03611e-05 	2.93412e-05 20.0146 	6.43384e-06 	4.81374e-05 20.0292 	5.61089e-05 	3.575e-05 20.0292 	5.611e-05 	3.57507e-05 20.0292 	5.61112e-05 	3.57514e-05 20.0292 	5.61123e-05 	3.57522e-05 20.0146 	6.52175e-06 	5.75165e-05 20.029 	6.16948e-05 	4.20252e-05 20.0291 	6.16962e-05 	4.20262e-05 20.0291 	6.16977e-05 	4.20272e-05 20.0291 	6.16992e-05 	4.20282e-05 20.0145 	6.60171e-06 	6.66829e-05 20.0289 	6.71074e-05 	4.81462e-05 20.0289 	6.71092e-05 	4.81475e-05 20.0289 	6.71111e-05 	4.81489e-05 20.0289 	6.71129e-05 	4.81502e-05 20.0144 	6.30174e-05 	7.54998e-05 20.0286 	7.23297e-05 	5.40726e-05 20.0286 	7.2332e-05 	5.40743e-05 20.0286 	7.23342e-05 	5.4076e-05 20.0286 	7.23365e-05 	5.40776e-05 20.0143 	6.74295e-06 	8.42258e-05 20.0284 	7.73439e-05 	5.9802e-05 20.0284 	7.73466e-05 	5.9804e-05 20.0284 	7.73492e-05 	5.98061e-05 20.0284 	7.73518e-05 	5.98081e-05 20.0141 	6.80767e-06 	9.25369e-05 20.0281 	8.21233e-05 	6.53052e-05 20.0281 	8.21263e-05 	6.53076e-05 20.0281 	8.21294e-05 	6.53101e-05 20.0281 	8.21325e-05 	6.53125e-05 20.014 	7.74957e-05 	0.000100383 20.0278 	8.66555e-05 	7.0567e-05 20.0278 	8.6659e-05 	7.05699e-05 20.0278 	8.66625e-05 	7.05727e-05 20.0278 	8.66659e-05 	7.05756e-05 20.0138 	8.1851e-05 	0.000107962 20.0275 	9.09346e-05 	7.55569e-05 20.0275 	9.09385e-05 	7.55602e-05 20.0275 	9.09424e-05 	7.55635e-05 20.0275 	9.09463e-05 	7.55667e-05 20.0136 	6.9652e-06 	0.000115279 20.0271 	9.49333e-05 	8.02793e-05 20.0271 	9.49377e-05 	8.0283e-05 20.0271 	9.4942e-05 	8.02867e-05 20.0271 	9.49464e-05 	8.02903e-05 20.0135 	7.00984e-06 	0.00012206 20.0267 	9.86553e-05 	8.47185e-05 20.0267 	9.866e-05 	8.47226e-05 20.0267 	9.86648e-05 	8.47267e-05 20.0267 	9.86696e-05 	8.47308e-05 20.0133 	7.05336e-06 	0.000128413 20.0263 	0.00010209 	8.88679e-05 20.0263 	0.000102095 	8.88724e-05 20.0263 	0.0001021 	8.88769e-05 20.0263 	0.000102105 	8.88814e-05 20.0131 	9.65501e-05 	0.000134181 20.0259 	0.000105234 	9.27003e-05 20.0259 	0.000105239 	9.27052e-05 20.0259 	0.000105245 	9.27101e-05 20.0259 	0.00010525 	9.2715e-05 20.0128 	9.95e-05 	0.000139636 20.0255 	0.000108078 	9.6229e-05 20.0255 	0.000108084 	9.62342e-05 20.0255 	0.00010809 	9.62395e-05 20.0255 	0.000108096 	9.62448e-05 20.0126 	7.16658e-06 	0.000144777 20.025 	0.000110595 	9.94496e-05 20.025 	0.000110601 	9.94552e-05 20.025 	0.000110608 	9.94609e-05 20.025 	0.000110614 	9.94665e-05 20.0124 	0.000104496 	0.000149168 20.0245 	0.00011282 	0.000102356 20.0245 	0.000112826 	0.000102362 20.0246 	0.000112833 	0.000102368 20.0246 	0.000112839 	0.000102374 20.0122 	7.21931e-06 	0.000153385 20.0241 	0.000114749 	0.000104945 20.0241 	0.000114756 	0.000104951 20.0241 	0.000114763 	0.000104958 20.0241 	0.00011477 	0.000104964 20.0119 	7.24309e-06 	0.000156996 20.0236 	0.000116409 	0.000107232 20.0236 	0.000116416 	0.000107239 20.0236 	0.000116424 	0.000107245 20.0236 	0.000116431 	0.000107252 20.0117 	7.26075e-06 	0.00016015 20.0231 	0.000117738 	0.000109209 20.0231 	0.000117746 	0.000109216 20.0231 	0.000117753 	0.000109222 20.0231 	0.00011776 	0.000109229 20.0114 	7.26934e-06 	0.000162857 20.0225 	0.000118811 	0.000110888 20.0225 	0.000118818 	0.000110895 20.0225 	0.000118826 	0.000110902 20.0225 	0.000118833 	0.000110909 20.0111 	0.000111914 	0.000164977 20.022 	0.000119621 	0.000112253 20.022 	0.000119629 	0.00011226 20.022 	0.000119636 	0.000112267 20.022 	0.000119644 	0.000112275 20.0109 	7.27234e-06 	0.000166945 20.0215 	0.000120191 	0.000113343 20.0215 	0.000120199 	0.00011335 20.0215 	0.000120207 	0.000113357 20.0215 	0.000120214 	0.000113364 20.0106 	7.26653e-06 	0.000168351 20.0209 	0.000120492 	0.000114149 20.0209 	0.000120499 	0.000114156 20.0209 	0.000120507 	0.000114164 20.0209 	0.000120515 	0.000114171 20.0103 	0.000113248 	0.000169215 20.0204 	0.000120581 	0.000114686 20.0204 	0.000120589 	0.000114693 20.0204 	0.000120597 	0.000114701 20.0204 	0.000120605 	0.000114708 20.0101 	0.000113256 	0.000169814 20.0198 	0.00012047 	0.000114941 20.0199 	0.000120477 	0.000114949 20.0199 	0.000120485 	0.000114956 20.0199 	0.000120493 	0.000114964 20.0098 	7.20286e-06 	0.000170171 20.0193 	0.000120155 	0.000114975 20.0193 	0.000120163 	0.000114983 20.0193 	0.000120171 	0.00011499 20.0193 	0.000120179 	0.000114998 20.0095 	7.16811e-06 	0.000170039 20.0188 	0.000119643 	0.000114755 20.0188 	0.000119651 	0.000114762 20.0188 	0.000119659 	0.00011477 20.0188 	0.000119666 	0.000114777 20.0092 	7.12731e-06 	0.000169558 20.0182 	0.000118989 	0.000114324 20.0182 	0.000118997 	0.000114331 20.0182 	0.000119004 	0.000114339 20.0182 	0.000119012 	0.000114346 20.009 	0.000111472 	0.000168633 20.0177 	0.000118188 	0.000113664 20.0177 	0.000118196 	0.000113671 20.0177 	0.000118203 	0.000113678 20.0177 	0.000118211 	0.000113686 20.0087 	0.000110648 	0.000167527 20.0171 	0.000117254 	0.000112811 20.0171 	0.000117262 	0.000112818 20.0171 	0.000117269 	0.000112825 20.0171 	0.000117277 	0.000112832 20.0084 	6.97028e-06 	0.000166247 20.0166 	0.000116164 	0.000111777 20.0166 	0.000116172 	0.000111784 20.0166 	0.000116179 	0.000111791 20.0166 	0.000116186 	0.000111799 20.0082 	6.90566e-06 	0.000164588 20.016 	0.000114979 	0.000110576 20.0161 	0.000114986 	0.000110583 20.0161 	0.000114993 	0.00011059 20.0161 	0.000115 	0.000110597 20.0079 	0.000107466 	0.000162578 20.0155 	0.0001137 	0.0001092 20.0155 	0.000113707 	0.000109207 20.0155 	0.000113715 	0.000109214 20.0155 	0.000113722 	0.000109221 20.0076 	0.000106208 	0.00016045 20.015 	0.000112328 	0.000107691 20.015 	0.000112334 	0.000107698 20.015 	0.000112341 	0.000107704 20.015 	0.000112348 	0.000107711 20.0074 	6.68549e-06 	0.000158209 20.0145 	0.000110859 	0.000106043 20.0145 	0.000110866 	0.00010605 20.0145 	0.000110873 	0.000106056 20.0145 	0.000110879 	0.000106062 20.0071 	6.60034e-06 	0.000155682 20.014 	0.000109317 	0.000104285 20.014 	0.000109324 	0.000104291 20.014 	0.00010933 	0.000104297 20.014 	0.000109337 	0.000104304 20.0069 	0.000101962 	0.0001529 20.0135 	0.000107715 	0.000102397 20.0135 	0.000107722 	0.000102402 20.0135 	0.000107728 	0.000102408 20.0135 	0.000107734 	0.000102414 20.0066 	6.4151e-06 	0.000150136 20.013 	0.000106064 	0.000100425 20.013 	0.00010607 	0.000100431 20.013 	0.000106076 	0.000100436 20.013 	0.000106082 	0.000100442 20.0064 	6.317e-06 	0.000147155 20.0125 	0.000104335 	9.83693e-05 20.0125 	0.000104341 	9.83748e-05 20.0125 	0.000104347 	9.83803e-05 20.0125 	0.000104352 	9.83857e-05 20.0062 	9.72037e-05 	0.000143986 20.0121 	0.000102582 	9.62423e-05 20.0121 	0.000102587 	9.62476e-05 20.0121 	0.000102593 	9.62528e-05 20.0121 	0.000102598 	9.62581e-05 20.0059 	9.55439e-05 	0.000140786 20.0116 	0.000100804 	9.40375e-05 20.0116 	0.000100809 	9.40425e-05 20.0116 	0.000100814 	9.40475e-05 20.0116 	0.00010082 	9.40525e-05 20.0057 	5.9969e-06 	0.000137571 20.0112 	9.89964e-05 	9.1786e-05 20.0112 	9.90015e-05 	9.17908e-05 20.0112 	9.90067e-05 	9.17955e-05 20.0112 	9.90118e-05 	9.18003e-05 20.0055 	5.88446e-06 	0.000134217 20.0108 	9.7153e-05 	8.94968e-05 20.0108 	9.71579e-05 	8.95013e-05 20.0108 	9.71628e-05 	8.95058e-05 20.0108 	9.71677e-05 	8.95104e-05 20.0053 	5.76928e-06 	0.000130805 20.0103 	9.53166e-05 	8.71823e-05 20.0103 	9.53213e-05 	8.71866e-05 20.0103 	9.5326e-05 	8.71909e-05 20.0103 	9.53307e-05 	8.71952e-05 20.0051 	8.871e-05 	0.000127287 20.0099 	9.34806e-05 	8.48251e-05 20.0099 	9.3485e-05 	8.48292e-05 20.0099 	9.34895e-05 	8.48333e-05 20.0099 	9.3494e-05 	8.48373e-05 20.0049 	8.69867e-05 	0.000123799 20.0095 	9.16495e-05 	8.24566e-05 20.0095 	9.16538e-05 	8.24604e-05 20.0095 	9.1658e-05 	8.24642e-05 20.0095 	9.16623e-05 	8.24681e-05 20.0047 	5.41608e-06 	0.000120345 20.0092 	8.9795e-05 	8.00845e-05 20.0092 	8.9799e-05 	8.00881e-05 20.0092 	8.98031e-05 	8.00918e-05 20.0092 	8.98072e-05 	8.00954e-05 20.0045 	8.35561e-05 	0.000116776 20.0088 	8.79717e-05 	7.77094e-05 20.0088 	8.79756e-05 	7.77128e-05 20.0088 	8.79794e-05 	7.77162e-05 20.0088 	8.79833e-05 	7.77196e-05 20.0043 	8.18671e-05 	0.000113255 20.0084 	8.61766e-05 	7.53257e-05 20.0084 	8.61803e-05 	7.53289e-05 20.0084 	8.61839e-05 	7.53321e-05 20.0084 	8.61876e-05 	7.53353e-05 20.0041 	8.02002e-05 	0.000109745 20.0081 	8.44083e-05 	7.29633e-05 20.0081 	8.44118e-05 	7.29663e-05 20.0081 	8.44152e-05 	7.29693e-05 20.0081 	8.44187e-05 	7.29723e-05 20.004 	4.92716e-06 	0.000106297 20.0078 	8.26374e-05 	7.06149e-05 20.0078 	8.26407e-05 	7.06177e-05 20.0078 	8.2644e-05 	7.06205e-05 20.0078 	8.26473e-05 	7.06233e-05 20.0038 	4.80011e-06 	0.00010283 20.0074 	8.09213e-05 	6.82901e-05 20.0074 	8.09244e-05 	6.82927e-05 20.0074 	8.09276e-05 	6.82953e-05 20.0074 	8.09307e-05 	6.8298e-05 20.0036 	7.53726e-05 	9.93549e-05 20.0071 	7.92506e-05 	6.59657e-05 20.0071 	7.92536e-05 	6.59681e-05 20.0071 	7.92565e-05 	6.59706e-05 20.0071 	7.92595e-05 	6.5973e-05 20.0035 	4.54936e-06 	9.59864e-05 20.0069 	7.76335e-05 	6.36821e-05 20.0069 	7.76363e-05 	6.36844e-05 20.0069 	7.76391e-05 	6.36867e-05 20.0069 	7.76419e-05 	6.3689e-05 20.0034 	4.42596e-06 	9.26263e-05 20.0066 	7.60377e-05 	6.1428e-05 20.0066 	7.60403e-05 	6.14301e-05 20.0066 	7.60429e-05 	6.14322e-05 20.0066 	7.60456e-05 	6.14344e-05 20.0032 	7.09373e-05 	8.92839e-05 20.0063 	7.4516e-05 	5.92079e-05 20.0063 	7.45185e-05 	5.92099e-05 20.0063 	7.4521e-05 	5.92119e-05 20.0063 	7.45235e-05 	5.92138e-05 20.0031 	6.95722e-05 	8.60163e-05 20.006 	7.30639e-05 	5.70091e-05 20.006 	7.30663e-05 	5.70109e-05 20.006 	7.30686e-05 	5.70128e-05 20.006 	7.3071e-05 	5.70146e-05 20.003 	4.05544e-06 	8.28301e-05 20.0058 	7.16744e-05 	5.48535e-05 20.0058 	7.16766e-05 	5.48552e-05 20.0058 	7.16788e-05 	5.48569e-05 20.0058 	7.1681e-05 	5.48586e-05 20.0028 	3.93294e-06 	7.96748e-05 20.0056 	7.0341e-05 	5.27421e-05 20.0056 	7.03431e-05 	5.27437e-05 20.0056 	7.03452e-05 	5.27453e-05 20.0056 	7.03473e-05 	5.27468e-05 20.0027 	3.81221e-06 	7.65778e-05 20.0054 	6.91098e-05 	5.06788e-05 20.0054 	6.91118e-05 	5.06803e-05 20.0054 	6.91137e-05 	5.06817e-05 20.0054 	6.91157e-05 	5.06832e-05 20.0026 	6.481e-05 	7.35151e-05 20.0051 	6.79717e-05 	4.86387e-05 20.0051 	6.79735e-05 	4.86401e-05 20.0051 	6.79754e-05 	4.86414e-05 20.0051 	6.79772e-05 	4.86427e-05 20.0025 	6.3826e-05 	7.05379e-05 20.0049 	6.69278e-05 	4.66466e-05 20.0049 	6.69295e-05 	4.66478e-05 20.0049 	6.69313e-05 	4.66491e-05 20.0049 	6.69331e-05 	4.66503e-05 20.0024 	3.4657e-06 	6.76437e-05 20.0048 	6.59514e-05 	4.47018e-05 20.0048 	6.5953e-05 	4.47029e-05 20.0048 	6.59547e-05 	4.4704e-05 20.0048 	6.59564e-05 	4.47051e-05 20.0023 	6.21381e-05 	6.47731e-05 20.0046 	6.50965e-05 	4.27992e-05 20.0046 	6.50981e-05 	4.28003e-05 20.0046 	6.50997e-05 	4.28013e-05 20.0046 	6.51012e-05 	4.28023e-05 20.0023 	6.14527e-05 	6.19781e-05 20.0044 	6.43582e-05 	4.09256e-05 20.0044 	6.43597e-05 	4.09265e-05 20.0044 	6.43612e-05 	4.09275e-05 20.0044 	6.43627e-05 	4.09284e-05 20.0022 	3.13656e-06 	5.92628e-05 20.0043 	6.37864e-05 	3.9104e-05 20.0043 	6.37878e-05 	3.91049e-05 20.0043 	6.37892e-05 	3.91058e-05 20.0043 	6.37906e-05 	3.91066e-05 20.0021 	3.03876e-06 	5.65931e-05 20.0041 	6.32728e-05 	3.73218e-05 20.0041 	6.32742e-05 	3.73226e-05 20.0041 	6.32755e-05 	3.73234e-05 20.0041 	6.32768e-05 	3.73242e-05 20.002 	2.93131e-06 	5.39828e-05 20.004 	6.29142e-05 	3.55846e-05 20.004 	6.29155e-05 	3.55854e-05 20.004 	6.29168e-05 	3.55861e-05 20.004 	6.2918e-05 	3.55868e-05 20.002 	5.99257e-05 	5.14154e-05 20.0039 	6.27028