# vtk DataFile Version 2.0
track0
ASCII
DATASET POLYDATA
POINTS 15780 float
-1.001 -0.05 0.0011
-1.0008 -0.05 0.0011
-1.0006 -0.05 0.0011
-1.0004 -0.05 0.0011
-1.0002 -0.05 0.0011
-1 -0.05 0.0011
-0.9875 -0.05 0.0011
-0.975 -0.05 0.0011
-0.9625 -0.05 0.0011
-0.95 -0.05 0.0011
-0.9375 -0.05 0.00109999
-0.925 -0.05 0.00109999
-0.9125 -0.05 0.00109999
-0.9 -0.05 0.00109999
-0.8875 -0.05 0.00109999
-0.875 -0.05 0.00109999
-0.8625 -0.05 0.00109999
-0.85 -0.05 0.00109999
-0.8375 -0.05 0.00109998
-0.825 -0.0500001 0.00109998
-0.8125 -0.0500001 0.00109998
-0.8 -0.0500001 0.00109998
-0.7875 -0.0500001 0.00109998
-0.775 -0.0500001 0.00109998
-0.7625 -0.0500001 0.00109998
-0.75 -0.0500001 0.00109998
-0.7375 -0.0500001 0.00109997
-0.725 -0.0500001 0.00109997
-0.7125 -0.0500001 0.00109997
-0.7 -0.0500001 0.00109997
-0.6875 -0.0500001 0.00109997
-0.675 -0.0500001 0.00109997
-0.6625 -0.0500001 0.00109997
-0.65 -0.0500001 0.00109996
-0.6375 -0.0500001 0.00109996
-0.625 -0.0500001 0.00109996
-0.6125 -0.0500001 0.00109996
-0.6 -0.0500001 0.00109996
-0.5875 -0.0500001 0.00109996
-0.575 -0.0500001 0.00109996
-0.5625 -0.0500001 0.00109996
-0.55 -0.0500001 0.00109995
-0.5375 -0.0500001 0.00109995
-0.525 -0.0500001 0.00109995
-0.5125 -0.0500001 0.00109995
-0.5 -0.0500001 0.00109995
-0.4875 -0.0500001 0.00109995
-0.475 -0.0500001 0.00109995
-0.4625 -0.0500001 0.00109994
-0.45 -0.0500002 0.00109994
-0.4375 -0.0500002 0.00109994
-0.425 -0.0500002 0.00109994
-0.4125 -0.0500002 0.00109994
-0.4 -0.0500002 0.00109994
-0.3875 -0.0500002 0.00109994
-0.375 -0.0500002 0.00109994
-0.3625 -0.0500002 0.00109993
-0.35 -0.0500002 0.00109993
-0.3375 -0.0500002 0.00109993
-0.325 -0.0500002 0.00109993
-0.3125 -0.0500002 0.00109993
-0.3 -0.0500002 0.00109993
-0.2875 -0.0500002 0.00109993
-0.275 -0.0500002 0.00109993
-0.2625 -0.0500002 0.00109992
-0.25 -0.0500002 0.00109992
-0.2375 -0.0500002 0.00109992
-0.225 -0.0500002 0.00109992
-0.2125 -0.0500002 0.00109992
-0.2 -0.0500002 0.00109992
-0.1875 -0.0500002 0.00109992
-0.175 -0.0500002 0.00109992
-0.1625 -0.0500002 0.00109991
-0.15 -0.0500002 0.00109991
-0.1375 -0.0500002 0.00109991
-0.125 -0.0500002 0.00109991
-0.1125 -0.0500002 0.00109991
-0.1 -0.0500002 0.00109991
-0.0875 -0.0500002 0.00109991
-0.075 -0.0500002 0.00109991
-0.0625 -0.0500002 0.00109991
-0.05 -0.0500003 0.00109991
-0.0375 -0.0500003 0.0010999
-0.025 -0.0500003 0.0010999
-0.0125 -0.0500003 0.0010999
2.10607e-13 -0.0500003 0.0010999
0.0125 -0.0500003 0.0010999
0.025 -0.0500003 0.0010999
0.0375 -0.0500003 0.0010999
0.05 -0.0500003 0.0010999
0.0625 -0.0500003 0.0010999
0.075 -0.0500003 0.0010999
0.0875 -0.0500003 0.0010999
0.1 -0.0500003 0.00109989
0.1125 -0.0500003 0.00109989
0.125 -0.0500003 0.00109989
0.1375 -0.0500003 0.00109989
0.15 -0.0500003 0.00109989
0.1625 -0.0500003 0.00109989
0.175 -0.0500003 0.00109989
0.1875 -0.0500003 0.00109989
0.2 -0.0500003 0.00109989
0.2125 -0.0500003 0.00109989
0.225 -0.0500003 0.00109989
0.2375 -0.0500003 0.00109989
0.25 -0.0500003 0.00109989
0.2625 -0.0500003 0.00109988
0.275 -0.0500003 0.00109988
0.2875 -0.0500003 0.00109988
0.3 -0.0500003 0.00109988
0.3125 -0.0500003 0.00109988
0.325 -0.0500003 0.00109988
0.3375 -0.0500003 0.00109988
0.35 -0.0500003 0.00109988
0.3625 -0.0500003 0.00109988
0.375 -0.0500003 0.00109988
0.3875 -0.0500003 0.00109988
0.4 -0.0500004 0.00109988
0.4125 -0.0500004 0.00109988
0.425 -0.0500004 0.00109988
0.4375 -0.0500004 0.00109988
0.45 -0.0500004 0.00109988
0.4625 -0.0500004 0.00109988
0.475 -0.0500004 0.00109988
0.4875 -0.0500004 0.00109988
0.5 -0.0500004 0.00109988
0.5125 -0.0500004 0.00109988
0.525 -0.0500004 0.00109988
0.5375 -0.0500004 0.00109988
0.55 -0.0500004 0.00109988
0.5625 -0.0500004 0.00109988
0.575 -0.0500004 0.00109987
0.5875 -0.0500004 0.00109987
0.6 -0.0500004 0.00109987
0.6125 -0.0500004 0.00109987
0.625 -0.0500004 0.00109987
0.6375 -0.0500004 0.00109987
0.65 -0.0500004 0.00109987
0.6625 -0.0500004 0.00109987
0.675 -0.0500004 0.00109987
0.6875 -0.0500004 0.00109987
0.7 -0.0500004 0.00109987
0.7125 -0.0500004 0.00109987
0.725 -0.0500004 0.00109987
0.7375 -0.0500004 0.00109987
0.75 -0.0500004 0.00109987
0.7625 -0.0500004 0.00109987
0.775 -0.0500004 0.00109987
0.7875 -0.0500004 0.00109987
0.8 -0.0500004 0.00109987
0.8125 -0.0500004 0.00109987
0.825 -0.0500004 0.00109987
0.8375 -0.0500004 0.00109987
0.85 -0.0500004 0.00109987
0.8625 -0.0500004 0.00109987
0.875 -0.0500004 0.00109987
0.8875 -0.0500004 0.00109987
0.9 -0.0500004 0.00109987
0.9125 -0.0500005 0.00109988
0.925 -0.0500005 0.00109988
0.9375 -0.0500005 0.00109988
0.95 -0.0500005 0.00109988
0.9625 -0.0500005 0.00109988
0.975 -0.0500005 0.00109988
0.9875 -0.0500005 0.00109988
1 -0.0500005 0.00109988
1.0125 -0.0500005 0.00109988
1.025 -0.0500005 0.00109988
1.0375 -0.0500005 0.00109988
1.05 -0.0500005 0.00109988
1.0625 -0.0500005 0.00109988
1.075 -0.0500005 0.00109988
1.0875 -0.0500005 0.00109988
1.1 -0.0500005 0.00109988
1.1125 -0.0500005 0.00109988
1.125 -0.0500005 0.00109988
1.1375 -0.0500005 0.00109988
1.15 -0.0500005 0.00109988
1.1625 -0.0500005 0.00109988
1.175 -0.0500005 0.00109988
1.1875 -0.0500005 0.00109988
1.2 -0.0500005 0.00109988
1.2125 -0.0500005 0.00109988
1.225 -0.0500005 0.00109988
1.2375 -0.0500005 0.00109989
1.25 -0.0500005 0.00109989
1.2625 -0.0500005 0.00109989
1.275 -0.0500005 0.00109989
1.2875 -0.0500005 0.00109989
1.3 -0.0500005 0.00109989
1.3125 -0.0500005 0.00109989
1.325 -0.0500005 0.00109989
1.3375 -0.0500005 0.00109989
1.35 -0.0500005 0.00109989
1.3625 -0.0500005 0.00109989
1.375 -0.0500005 0.00109989
1.3875 -0.0500005 0.00109989
1.4 -0.0500005 0.00109989
1.4125 -0.0500005 0.00109989
1.425 -0.0500005 0.00109989
1.4375 -0.0500005 0.0010999
1.45 -0.0500005 0.0010999
1.4625 -0.0500005 0.0010999
1.475 -0.0500005 0.0010999
1.4875 -0.0500005 0.0010999
1.5 -0.0500006 0.0010999
1.5125 -0.0500006 0.0010999
1.525 -0.0500006 0.0010999
1.5375 -0.0500006 0.0010999
1.55 -0.0500006 0.0010999
1.5625 -0.0500006 0.0010999
1.575 -0.0500006 0.0010999
1.5875 -0.0500006 0.0010999
1.6 -0.0500006 0.0010999
1.6125 -0.0500006 0.00109991
1.625 -0.0500006 0.00109991
1.6375 -0.0500006 0.00109991
1.65 -0.0500006 0.00109991
1.6625 -0.0500006 0.00109991
1.675 -0.0500006 0.00109991
1.6875 -0.0500006 0.00109991
1.7 -0.0500006 0.00109991
1.7125 -0.0500006 0.00109991
1.725 -0.0500006 0.00109991
1.7375 -0.0500006 0.00109991
1.75 -0.0500006 0.00109991
1.7625 -0.0500006 0.00109992
1.775 -0.0500006 0.00109992
1.7875 -0.0500006 0.00109992
1.8 -0.0500006 0.00109992
1.8125 -0.0500006 0.00109992
1.825 -0.0500006 0.00109992
1.8375 -0.0500006 0.00109992
1.85 -0.0500006 0.00109992
1.8625 -0.0500006 0.00109992
1.875 -0.0500006 0.00109992
1.8875 -0.0500006 0.00109992
1.9 -0.0500006 0.00109992
1.9125 -0.0500006 0.00109993
1.925 -0.0500006 0.00109993
1.9375 -0.0500006 0.00109993
1.95 -0.0500006 0.00109993
1.9625 -0.0500006 0.00109993
1.975 -0.0500006 0.00109993
1.9875 -0.0500006 0.00109993
2 -0.0500006 0.00109993
2.0125 -0.0500006 0.00109993
2.025 -0.0500006 0.00109993
2.0375 -0.0500006 0.00109993
2.05 -0.0500006 0.00109993
2.0625 -0.0500006 0.00109994
2.075 -0.0500006 0.00109994
2.0875 -0.0500006 0.00109994
2.1 -0.0500006 0.00109994
2.1125 -0.0500006 0.00109994
2.125 -0.0500006 0.00109994
2.1375 -0.0500006 0.00109994
2.15 -0.0500006 0.00109994
2.1625 -0.0500006 0.00109994
2.175 -0.0500007 0.00109994
2.1875 -0.0500007 0.00109994
2.2 -0.0500007 0.00109994
2.2125 -0.0500007 0.00109994
2.225 -0.0500007 0.00109995
2.2375 -0.0500007 0.00109995
2.25 -0.0500007 0.00109995
2.2625 -0.0500007 0.00109995
2.275 -0.0500007 0.00109995
2.2875 -0.0500007 0.00109995
2.3 -0.0500007 0.00109995
2.3125 -0.0500007 0.00109995
2.325 -0.0500007 0.00109995
2.3375 -0.0500007 0.00109995
2.35 -0.0500007 0.00109995
2.3625 -0.0500007 0.00109995
2.375 -0.0500007 0.00109995
2.3875 -0.0500007 0.00109996
2.4 -0.0500007 0.00109996
2.4125 -0.0500007 0.00109996
2.425 -0.0500007 0.00109996
2.4375 -0.0500007 0.00109996
2.45 -0.0500007 0.00109996
2.4625 -0.0500007 0.00109996
2.475 -0.0500007 0.00109996
2.4875 -0.0500007 0.00109996
2.5 -0.0500007 0.00109996
2.5125 -0.0500007 0.00109996
2.525 -0.0500007 0.00109996
2.5375 -0.0500007 0.00109996
2.55 -0.0500007 0.00109996
2.5625 -0.0500007 0.00109997
2.575 -0.0500007 0.00109997
2.5875 -0.0500007 0.00109997
2.6 -0.0500007 0.00109997
2.6125 -0.0500007 0.00109997
2.625 -0.0500007 0.00109997
2.6375 -0.0500007 0.00109997
2.65 -0.0500007 0.00109997
2.6625 -0.0500007 0.00109997
2.675 -0.0500007 0.00109997
2.6875 -0.0500007 0.00109997
2.7 -0.0500007 0.00109997
2.7125 -0.0500007 0.00109997
2.725 -0.0500007 0.00109997
2.7375 -0.0500007 0.00109997
2.75 -0.0500007 0.00109997
2.7625 -0.0500007 0.00109998
2.775 -0.0500007 0.00109998
2.7875 -0.0500007 0.00109998
2.8 -0.0500007 0.00109998
2.8125 -0.0500007 0.00109998
2.825 -0.0500007 0.00109998
2.8375 -0.0500007 0.00109998
2.85 -0.0500007 0.00109998
2.8625 -0.0500008 0.00109998
2.875 -0.0500008 0.00109998
2.8875 -0.0500008 0.00109998
2.9 -0.0500008 0.00109998
2.9125 -0.0500008 0.00109998
2.925 -0.0500008 0.00109998
2.9375 -0.0500008 0.00109998
2.95 -0.0500008 0.00109998
2.9625 -0.0500008 0.00109998
2.975 -0.0500008 0.00109998
2.9875 -0.0500008 0.00109998
3 -0.0500008 0.00109998
3.0125 -0.0500008 0.00109999
3.025 -0.0500008 0.00109999
3.0375 -0.0500008 0.00109999
3.05 -0.0500008 0.00109999
3.0625 -0.0500008 0.00109999
3.075 -0.0500008 0.00109999
3.0875 -0.0500008 0.00109999
3.1 -0.0500008 0.00109999
3.1125 -0.0500008 0.00109999
3.125 -0.0500008 0.00109999
3.1375 -0.0500008 0.00109999
3.15 -0.0500008 0.00109999
3.1625 -0.0500008 0.00109999
3.175 -0.0500008 0.00109999
3.1875 -0.0500008 0.00109999
3.2 -0.0500008 0.00109999
3.2125 -0.0500008 0.00109999
3.225 -0.0500008 0.00109999
3.2375 -0.0500008 0.00109999
3.25 -0.0500008 0.00109999
3.2625 -0.0500008 0.00109999
3.275 -0.0500008 0.00109999
3.2875 -0.0500008 0.00109999
3.3 -0.0500008 0.00109999
3.3125 -0.0500008 0.00109999
3.325 -0.0500008 0.00109999
3.3375 -0.0500008 0.00109999
3.35 -0.0500008 0.0011
3.3625 -0.0500008 0.0011
[...]
POINT_DATA 15780
 FIELD attributes 2
p 1 15780 float
-0.0310981 -0.0311142 -0.0311302 -0.0311463 -0.0311623 -0.0311784 -0.0321098 -0.0330336 -0.0339573 -0.0348811 -0.0359015 -0.0369653 -0.0380317 -0.0390981 -0.0401644 -0.0411841 -0.0421676 -0.0431324 -0.0440972 -0.045062 -0.0459751 -0.0468729 -0.0477755 -0.048678 -0.0495806 -0.0504773 -0.0513779 -0.0522794 -0.0531809 -0.0540824 -0.0549833 -0.0558908 -0.0567987 -0.0577067 -0.0586147 -0.0595221 -0.0604217 -0.0613192 -0.0622167 -0.0631142 -0.0640088 -0.0648879 -0.065765 -0.0666422 -0.0675194 -0.0683944 -0.0692518 -0.0701071 -0.0709624 -0.0718177 -0.0726711 -0.0735057 -0.0743378 -0.0751698 -0.0760019 -0.0768316 -0.0776398 -0.078445 -0.0792502 -0.0800553 -0.0808577 -0.0816358 -0.0824101 -0.0831843 -0.0839586 -0.0847293 -0.0854734 -0.0862134 -0.0869533 -0.0876933 -0.0884293 -0.0891367 -0.0898392 -0.0905418 -0.0912443 -0.0919423 -0.0926096 -0.0932718 -0.0939339 -0.0945961 -0.0952533 -0.0958777 -0.0964966 -0.0971154 -0.0977343 -0.0983475 -0.0989265 -0.0994997 -0.100073 -0.100646 -0.101213 -0.101746 -0.102272 -0.102798 -0.103325 -0.103845 -0.104329 -0.104807 -0.105285 -0.105762 -0.106234 -0.106668 -0.107095 -0.107521 -0.107948 -0.108367 -0.108748 -0.109121 -0.109493 -0.109866 -0.110232 -0.110556 -0.110873 -0.11119 -0.111507 -0.111817 -0.112085 -0.112345 -0.112605 -0.112865 -0.113118 -0.113328 -0.113531 -0.113733 -0.113936 -0.114131 -0.114283 -0.114427 -0.114571 -0.114715 -0.114851 -0.114944 -0.115029 -0.115115 -0.1152 -0.115278 -0.115314 -0.115343 -0.115372 -0.1154 -0.115422 -0.115404 -0.115378 -0.115353 -0.115327 -0.115295 -0.115224 -0.115146 -0.115069 -0.114991 -0.114906 -0.114783 -0.114654 -0.114524 -0.114395 -0.114258 -0.114084 -0.113903 -0.113722 -0.113541 -0.113352 -0.113128 -0.112898 -0.112667 -0.112437 -0.112199 -0.111929 -0.111652 -0.111375 -0.111099 -0.110815 -0.110501 -0.11018 -0.109859 -0.109539 -0.109211 -0.108855 -0.108492 -0.10813 -0.107768 -0.107398 -0.107002 -0.1066 -0.106198 -0.105796 -0.105389 -0.104955 -0.104517 -0.104079 -0.10364 -0.103197 -0.10273 -0.10226 -0.101789 -0.101319 -0.100844 -0.10035 -0.0998516 -0.0993536 -0.0988555 -0.0983533 -0.0978344 -0.097312 -0.0967896 -0.0962671 -0.0957409 -0.0951999 -0.0946555 -0.0941112 -0.0935668 -0.0930187 -0.0924578 -0.091894 -0.0913302 -0.0907664 -0.0901995 -0.0896218 -0.0890416 -0.0884615 -0.0878813 -0.0872982 -0.0867067 -0.0861133 -0.0855199 -0.0849265 -0.0843308 -0.083729 -0.0831254 -0.0825219 -0.0819184 -0.0813128 -0.0807031 -0.0800923 -0.0794815 -0.0788707 -0.0782584 -0.077644 -0.0770286 -0.0764132 -0.0757978 -0.0751811 -0.0745641 -0.0739467 -0.0733293 -0.0727119 -0.0720937 -0.071477 -0.07086 -0.070243 -0.069626 -0.0690085 -0.0683939 -0.0677795 -0.0671652 -0.0665509 -0.0659365 -0.0653264 -0.0647167 -0.064107 -0.0634973 -0.0628877 -0.0622838 -0.0616805 -0.0610773 -0.0604741 -0.0598714 -0.0592755 -0.0586805 -0.0580855 -0.0574905 -0.0568961 -0.0563096 -0.0557243 -0.0551391 -0.0545538 -0.0539695 -0.0533941 -0.05282 -0.0522459 -0.0516717 -0.0510987 -0.0505353 -0.0499735 -0.0494118 -0.04885 -0.0482897 -0.0477396 -0.0471913 -0.0466429 -0.0460946 -0.0455477 -0.0450117 -0.0444777 -0.0439437 -0.0434096 -0.0428773 -0.0423565 -0.0418375 -0.0413186 -0.0407996 -0.0402825 -0.0397771 -0.0392739 -0.0387707 -0.0382675 -0.0377663 -0.0372772 -0.0367902 -0.0363033 -0.0358163 -0.0353313 -0.0348587 -0.0343883 -0.033918 -0.0334476 -0.0329795 -0.0325237 -0.0320703 -0.0316168 -0.0311633 -0.030712 -0.0302732 -0.0298368 -0.0294004 -0.028964 -0.0285299 -0.0281082 -0.0276889 -0.0272695 -0.0268502 -0.0264332 -0.0260286 -0.0256263 -0.0252241 -0.0248219 -0.024422 -0.0240345 -0.0236494 -0.0232643 -0.0228792 -0.0224964 -0.022126 -0.0217582 -0.0213903 -0.0210224 -0.020657 -0.0203037 -0.019953 -0.0196023 -0.0192515 -0.0189031 -0.0185665 -0.0182324 -0.0178984 -0.0175644 -0.0172328 -0.0169125 -0.0165946 -0.0162767 -0.0159588 -0.0156433 -0.0153388 -0.0150364 -0.0147341 -0.0144318 -0.014132 -0.0138426 -0.0135556 -0.0132685 -0.0129815 -0.0126969 -0.0124227 -0.0121506 -0.0118785 -0.0116064 -0.0113366 -0.0110769 -0.0108194 -0.010562 -0.0103045 -0.0100493 -0.009804 -0.00956085 -0.00931769 -0.00907453 -0.00883357 -0.0086021 -0.00837266 -0.00814323 -0.00791379 -0.00768644 -0.00746808 -0.00725183 -0.00703558 -0.00681934 -0.00660517 -0.00639964 -0.00619614 -0.00599264 -0.00578914 -0.00558764 -0.00539441 -0.0052033 -0.00501219 -0.00482107 -0.00463206 -0.00445101 -0.00427208 -0.00409314 -0.00391421 -0.00373732 -0.00356808 -0.0034009 -0.00323372 -0.00306654 -0.0029014 -0.00274335 -0.00258718 -0.002431 -0.00227482 -0.00212068 -0.00197317 -0.00182718 -0.0016812 -0.00153522 -0.00139102 -0.00125306 -0.0011167 -0.000980336 -0.000843977 -0.000709391 -0.000580716 -0.000453649 -0.000326583 -0.000199516 -7.40949e-05 4.55745e-05 0.000163628 0.000281682 0.000399736 0.000516172 0.00062716 0.000736562 0.000845964 0.000955366 0.00106315 0.00116588 0.00126707 0.00136826 0.00146946 0.00156906 0.00166395 0.00175739 0.00185082 0.00194426 0.00203618 0.00212371 0.00220982 0.00229593 0.00238204 0.00246666 0.00254717 0.00262635 0.00270552 0.0027847 0.00286247 0.00293641 0.00300904 0.00308166 0.00315429 0.00322552 0.00329322 0.00335968 0.00342613 0.00349258 0.00355774 0.00361959 0.00368023 0.00374087 0.00380151 0.00386086 0.00391719 0.00397237 0.00402755 0.00408273 0.0041367 0.0041879 0.00423796 0.00428801 0.00433807 0.00438693 0.00443324 0.00447847 0.00452371 0.00456894 0.00461304 0.00465481 0.00469552 0.00473623 0.00477693 0.00481653 0.00485398 0.00489045 0.00492692 0.00496339 0.00499881 0.00503231 0.00506482 0.00509733 0.00512984 0.00516131 0.00519104 0.00521986 0.00524867 0.00527749 0.00530533 0.00533161 0.00535698 0.00538234 0.00540771 0.00543212 0.00545512 0.00547728 0.00549944 0.0055216 0.00554286 0.00556289 0.00558208 0.00560127 0.00562046 0.00563874 0.00565597 0.0056724 0.00568884 0.00570527 0.00572087 0.00573555 0.00574944 0.00576333 0.00577722 0.00579029 0.00580255 0.00581409 0.00582563 0.00583718 0.00584795 0.00585805 0.00586743 0.00587681 0.00588619 0.00589479 0.00590286 0.00591025 0.00591765 0.00592504 0.00593172 0.00593796 0.00594354 0.00594911 0.00595469 0.00595955 0.00596409 0.005968 0.00597192 0.00597584 0.00597909 0.00598213 0.00598454 0.00598695 0.00598936 0.0059911 0.00599274 0.00599378 0.00599482 0.00599587 0.00599628 0.00599668 0.00599648 0.00599628 0.00599609 0.00599526 0.0059945 0.00599319 0.00599189 0.00599058 0.00598869 0.00598696 0.00598467 0.00598238 0.00598009 0.00597721 0.00597456 0.00597139 0.00596822 0.00596505 0.00596134 0.00595791 0.00595397 0.00595003 0.00594608 0.00594159 0.00593747 0.00593286 0.00592825 0.00592364 0.00591851 0.00591383 0.00590865 0.00590348 0.0058983 0.00589262 0.00588743 0.00588178 0.00587614 0.00587049 0.00586436 0.00585879 0.00585276 0.00584673 0.0058407 0.00583419 0.00582829 0.00582196 0.00581563 0.0058093 0.00580252 0.00579641 0.00578986 0.00578331 0.00577676 0.00576976 0.00576349 0.0057568 0.00575011 0.00574342 0.0057363 0.00572996 0.0057232 0.00571644 0.00570969 0.0057025 0.00569615 0.0056894 0.00568265 0.0056759 0.00566873 0.00566245 0.00565577 0.00564909 0.00564241 0.00563532 0.00562917 0.00562262 0.00561608 0.00560954 0.0056026 0.00559664 0.0055903 0.00558395 0.00557761 0.00557087 0.00556517 0.00555909 0.005553 0.00554692 0.00554045 0.00553505 0.00552928 0.00552351 0.00551773 0.00551158 0.00550656 0.00550115 0.00549573 0.00549032 0.00548454 0.0054799 0.00547489 0.00546988 0.00546487 0.00545949 0.0054553 0.00545071 0.00544613 0.00544154 0.00543658 0.0054328 0.00542863 0.00542447 0.0054203 0.00541576 0.00541238 0.00540857 0.00540476 0.00540095 0.00539674 0.00539355 0.00538991 0.00538626 0.00538262 0.00537856 0.00537516 0.00537124 0.00536733 0.00536341 0.00535902 0.00535411 0.00534839 0.00534267 0.00533694 0.00533043 0.00532166 0.00531245 0.00530325 0.00529404 0.00528435 0.00525822 0.00522658 0.00519493 0.00516328 0.00512674 0.00511526 0.00511792 0.00512057 0.00512323 0.00514885 0.00523246 0.0053085 0.00538787 0.00545084 0.00549646 0.00548944 0.00548561 0.00548177 0.00547797 0.00547644 0.00550332 0.005531 0.00555869 0.00557836 0.00559933 0.00561326 0.00563211 0.00565099 0.00566987 0.0056842 0.00574709 0.0058121 0.00587711 0.00594213 0.00599864 0.00609007 0.00616618 0.00624228 0.00631839 0.00632353 0.0063089 0.00628952 0.00627014 0.00625076 0.00624087 0.00604002 0.00581845 0.00559689 0.00537532 0.00504794 0.00456794 0.00407406 0.00358017 0.00308628 0.00262218 0.0023524 0.00207509 0.00179777 0.00152046 0.00127311 0.00117449 0.00106945 0.000964412 0.000859371 0.000773708 0.000667777 0.000556289 0.000444801 0.000333311 0.000255307
-0.0319475 -0.0319666 -0.0319857 -0.0320048 -0.0320239 -0.032043 -0.0327439 -0.0336215 -0.0344042 -0.0351667 -0.0362249 -0.0372616 -0.038252 -0.0392545 -0.0403139 -0.0412979 -0.042259 -0.0432251 -0.0441657 -0.0451009 -0.0460068 -0.0469049 -0.047811 -0.0487169 -0.0496221 -0.0505271 -0.0514188 -0.0523226 -0.0532312 -0.054141 -0.0550614 -0.0559665 -0.0568787 -0.0577905 -0.0587 -0.059615 -0.0605164 -0.0614147 -0.0623143 -0.0632142 -0.0641103 -0.0649914 -0.0658714 -0.066751 -0.0676286 -0.0685045 -0.0693627 -0.0702183 -0.0710766 -0.0719353 -0.0727918 -0.0736259 -0.0744613 -0.0752961 -0.0761285 -0.0769621 -0.0777694 -0.0785748 -0.0793825 -0.0801908 -0.0809975 -0.0817732 -0.0825503 -0.083327 -0.0841014 -0.0848774 -0.0856182 -0.0863582 -0.0871005 -0.0878432 -0.0885856 -0.089288 -0.0899932 -0.0906979 -0.0914005 -0.0921059 -0.0927672 -0.0934294 -0.0940936 -0.0947582 -0.095424 -0.0960409 -0.096662 -0.0972826 -0.0979014 -0.0985242 -0.0990932 -0.0996662 -0.100241 -0.100816 -0.101395 -0.101914 -0.102442 -0.102969 -0.103495 -0.10403 -0.104502 -0.10498 -0.105458 -0.105937 -0.106421 -0.106844 -0.107271 -0.107698 -0.108125 -0.108556 -0.108926 -0.109298 -0.109671 -0.110043 -0.110419 -0.110734 -0.11105 -0.111366 -0.111683 -0.112002 -0.112261 -0.112521 -0.112781 -0.11304 -0.1133 -0.113502 -0.113704 -0.113906 -0.114109 -0.114311 -0.114455 -0.114599 -0.114743 -0.114887 -0.11503 -0.115112 -0.115198 -0.115283 -0.115368 -0.115456 -0.11548 -0.115509 -0.115537 -0.115566 -0.1156 -0.115567 -0.115541 -0.115515 -0.11549 -0.11547 -0.115386 -0.115308 -0.115228 -0.115149 -0.115075 -0.114939 -0.114806 -0.114674 -0.114544 -0.114416 -0.11423 -0.114048 -0.113864 -0.113679 -0.113499 -0.113264 -0.11303 -0.112796 -0.112565 -0.112336 -0.112054 -0.111777 -0.111497 -0.111216 -0.11094 -0.110615 -0.110291 -0.109967 -0.109646 -0.109325 -0.10896 -0.108597 -0.108232 -0.107867 -0.107503 -0.1071 -0.106696 -0.106292 -0.10589 -0.105487 -0.105046 -0.104608 -0.104168 -0.103728 -0.103289 -0.102813 -0.10234 -0.101867 -0.101396 -0.100928 -0.100423 -0.0999239 -0.0994227 -0.0989211 -0.098426 -0.0978969 -0.0973707 -0.096845 -0.0963221 -0.0958018 -0.0952522 -0.0947075 -0.0941601 -0.0936122 -0.0930691 -0.0925006 -0.0919335 -0.091367 -0.0908028 -0.0902397 -0.0896551 -0.0890746 -0.0884918 -0.0879084 -0.087329 -0.0867312 -0.0861348 -0.0855388 -0.0849451 -0.0843524 -0.0837447 -0.0831409 -0.0825349 -0.0819285 -0.0813257 -0.0807109 -0.0800974 -0.0794842 -0.0788731 -0.078263 -0.0776438 -0.0770281 -0.0764106 -0.0757926 -0.0751779 -0.0745569 -0.0739371 -0.0733176 -0.0726999 -0.0720832 -0.0714628 -0.0708456 -0.0702268 -0.0696076 -0.0689914 -0.0683739 -0.0677576 -0.0671416 -0.066527 -0.0659135 -0.0653008 -0.064691 -0.0640797 -0.0634682 -0.0628593 -0.0622533 -0.0616484 -0.0610438 -0.0604405 -0.059838 -0.0592404 -0.0586452 -0.058049 -0.0574525 -0.0568583 -0.0562705 -0.0556839 -0.0550976 -0.0545122 -0.0539277 -0.0533514 -0.0527771 -0.052202 -0.0516267 -0.0510535 -0.0504896 -0.0499268 -0.0493642 -0.0488023 -0.0482414 -0.0476911 -0.0471427 -0.0465936 -0.0460444 -0.0454969 -0.0449611 -0.0444264 -0.0438917 -0.0433576 -0.0428245 -0.0423039 -0.041785 -0.0412655 -0.040746 -0.040228 -0.0397233 -0.0392196 -0.038716 -0.0382128 -0.0377105 -0.0372222 -0.0367352 -0.036248 -0.0357607 -0.0352746 -0.034803 -0.0343325 -0.0338619 -0.0333916 -0.0329221 -0.0324676 -0.0320141 -0.0315606 -0.031107 -0.0306544 -0.030217 -0.0297806 -0.0293442 -0.0289078 -0.0284723 -0.0280521 -0.0276328 -0.0272136 -0.0267944 -0.026376 -0.025973 -0.0255709 -0.0251689 -0.0247667 -0.0243654 -0.0239794 -0.0235943 -0.0232094 -0.0228244 -0.0224404 -0.0220714 -0.0217038 -0.0213361 -0.0209683 -0.0206017 -0.0202497 -0.019899 -0.0195485 -0.019198 -0.0188487 -0.0185133 -0.0181793 -0.0178454 -0.0175115 -0.0171788 -0.0168602 -0.0165424 -0.0162247 -0.015907 -0.0155903 -0.0152878 -0.0149858 -0.0146838 -0.0143816 -0.0140798 -0.0137934 -0.0135064 -0.0132197 -0.012933 -0.0126461 -0.0123748 -0.0121032 -0.0118314 -0.0115594 -0.0112871 -0.0110301 -0.0107727 -0.0105156 -0.0102587 -0.0100012 -0.0097584 -0.0095157 -0.00927292 -0.00902981 -0.00878689 -0.00855791 -0.00832856 -0.00809961 -0.00787075 -0.00764141 -0.00742572 -0.0072102 -0.00699457 -0.00677844 -0.00656257 -0.00635948 -0.00615609 -0.00595322 -0.00575047 -0.00554743 -0.00535645 -0.00516608 -0.00497559 -0.00478456 -0.00459407 -0.00441492 -0.00423605 -0.00405757 -0.00387918 -0.00370116 -0.00353315 -0.0033662 -0.00319922 -0.00303207 -0.00286574 -0.00270912 -0.00255301 -0.002397 -0.00224102 -0.00208569 -0.00193999 -0.00179441 -0.00164878 -0.00150291 -0.00135734 -0.00122193 -0.0010857 -0.000949852 -0.000814091 -0.000677569 -0.000551603 -0.000425201 -0.000298698 -0.000171743 -4.45006e-05 7.27721e-05 0.000190741 0.00030827 0.000425701 0.000543869 0.000652688 0.000761542 0.000870484 0.000979817 0.00108917 0.00118988 0.00129101 0.00139178 0.00149248 0.00159355 0.00168655 0.00177951 0.00187255 0.00196592 0.00205923 0.00214489 0.00223092 0.00231664 0.00240229 0.00248826 0.00256701 0.00264572 0.0027245 0.00280361 0.00288265 0.00295482 0.00302738 0.00309962 0.00317178 0.00324426 0.00331033 0.00337634 0.00344242 0.00350881 0.00357513 0.00363537 0.00369596 0.00375626 0.0038165 0.00387701 0.00393181 0.00398664 0.00404153 0.00409666 0.00415179 0.00420141 0.00425141 0.00430118 0.00435088 0.00440091 0.0044457 0.00449057 0.00453551 0.00458069 0.00462594 0.00466616 0.00470681 0.00474722 0.00478758 0.0048283 0.0048643 0.00490043 0.00493662 0.00497304 0.00500958 0.00504158 0.00507405 0.00510629 0.00513847 0.00517105 0.00519938 0.00522789 0.00525644 0.00528521 0.00531415 0.005339 0.00536432 0.00538944 0.00541452 0.00544 0.00546167 0.00548355 0.00550548 0.0055276 0.00554992 0.00556859 0.00558774 0.0056067 0.00562562 0.00564496 0.00566089 0.00567707 0.00569329 0.00570969 0.00572632 0.00573967 0.00575353 0.00576721 0.00578085 0.00579494 0.00580596 0.00581727 0.00582862 0.00584012 0.0058519 0.00586073 0.00587007 0.00587927 0.00588842 0.00589803 0.0059049 0.00591208 0.00591929 0.00592665 0.00593431 0.00593933 0.00594487 0.00595028 0.00595565 0.0059615 0.00596488 0.00596861 0.00597236 0.00597625 0.00598048 0.00598232 0.0059847 0.00598696 0.00598919 0.00599192 0.00599241 0.00599328 0.00599418 0.0059952 0.00599658 0.0059958 0.00599558 0.00599524 0.00599488 0.00599503 0.00599315 0.00599169 0.00599026 0.00598893 0.00598802 0.00598515 0.00598284 0.00598042 0.00597798 0.00597606 0.00597233 0.00596902 0.00596573 0.00596254 0.00595976 0.00595524 0.00595128 0.00594722 0.00594314 0.00593958 0.00593441 0.00592968 0.00592497 0.00592034 0.00591614 0.00591039 0.0059052 0.00589993 0.00589464 0.00588987 0.00588367 0.00587791 0.00587218 0.00586651 0.00586131 0.00585469 0.00584865 0.00584253 0.0058364 0.00583081 0.00582391 0.00581748 0.00581107 0.00580473 0.00579886 0.00579172 0.00578516 0.00577854 0.00577191 0.00576582 0.00575855 0.00575178 0.00574503 0.00573832 0.00573212 0.00572477 0.005718 0.00571118 0.00570435 0.00569808 0.00569075 0.00568393 0.00567713 0.00567036 0.00566412 0.00565684 0.00565015 0.00564342 0.00563668 0.0056305 0.00562338 0.00561678 0.00561019 0.00560364 0.00559763 0.00559068 0.00558433 0.00557795 0.00557156 0.00556575 0.00555908 0.00555295 0.00554684 0.00554074 0.00553522 0.00552884 0.00552306 0.00551726 0.00551146 0.00550625 0.00550026 0.00549483 0.00548941 0.00548399 0.00547918 0.00547356 0.00546855 0.00546354 0.00545854 0.00545414 0.00544897 0.00544442 0.00543987 0.00543529 0.00543136 0.00542659 0.00542243 0.00541835 0.00541429 0.00541083 0.00540646 0.00540287 0.00539924 0.00539545 0.00539248 0.00538831 0.00538472 0.00538149 0.00537835 0.00537579 0.00537146 0.00536865 0.00536565 0.00536187 0.0053596 0.00535427 0.00534902 0.00534603 0.00534357 0.00534114 0.0053321 0.00533036 0.00532745 0.00531951 0.00531847 0.00530415 0.00527958 0.00527508 0.0052753 0.00526456 0.00522167 0.00523324 0.00524361 0.00524888 0.00531699 0.00541046 0.00547402 0.0055376 0.00557558 0.00552927 0.00551006 0.00550302 0.00549598 0.00548848 0.00549248 0.00551003 0.00552819 0.00554636 0.00555806 0.00556933 0.00557038 0.00557143 0.00557249 0.00557341 0.00557411 0.00559894 0.0056279 0.00565694 0.00568597 0.00565935 0.00569751 0.00576015 0.00582317 0.00588619 0.00596617 0.00618045 0.00626946 0.00635193 0.00642803 0.00632111 0.00635697 0.00633759 0.00632114 0.00631168 0.0062563 0.00620975 0.00598819 0.00576662 0.00553248 0.00503887 0.00469925 0.00420536 0.00371147 0.00321491 0.0025961 0.00241446 0.00213715 0.00185983 0.00158252 0.0012427 0.00122359 0.00111855 0.00101351 0.000908471 0.000751277 0.000715268 0.000603781 0.000492295 0.000380808 0.00020678