# vtk DataFile Version 2.0
track0
ASCII
DATASET POLYDATA
POINTS 20517 float
-1.001 -0.05 0.0011
-1.00079 -0.05 0.0011
-1.00058 -0.0500001 0.0011
-1.00038 -0.0500001 0.0011
-1.00017 -0.0500002 0.00110001
-0.999962 -0.0500002 0.00110001
-0.98746 -0.0500027 0.00110016
-0.974958 -0.0500074 0.00109998
-0.962456 -0.0500121 0.00109981
-0.949954 -0.0500168 0.00109963
-0.937452 -0.0500214 0.00109946
-0.924948 -0.0500217 0.00109968
-0.912445 -0.0500269 0.00109975
-0.899941 -0.050032 0.00109983
-0.887437 -0.0500372 0.0010999
-0.874933 -0.0500424 0.00109998
-0.862428 -0.0500428 0.00110029
-0.849922 -0.0500486 0.00110053
-0.837416 -0.0500545 0.00110077
-0.82491 -0.0500604 0.00110101
-0.812404 -0.0500663 0.00110125
-0.799896 -0.0500704 0.00110155
-0.787388 -0.0500772 0.00110185
-0.774879 -0.050084 0.00110215
-0.762371 -0.0500908 0.00110244
-0.749862 -0.0500977 0.00110274
-0.737351 -0.0501028 0.001103
-0.724839 -0.050111 0.00110329
-0.712327 -0.0501193 0.00110357
-0.699816 -0.0501276 0.00110385
-0.687304 -0.0501358 0.00110414
-0.674789 -0.0501368 0.00110433
-0.662273 -0.0501471 0.00110452
-0.649757 -0.0501575 0.00110471
-0.637242 -0.0501678 0.0011049
-0.624726 -0.0501782 0.00110509
-0.612206 -0.0501867 0.001105
-0.599685 -0.0502003 0.00110497
-0.587165 -0.0502138 0.00110494
-0.574644 -0.0502273 0.00110492
-0.562124 -0.0502408 0.00110489
-0.549598 -0.0502525 0.00110433
-0.537072 -0.0502714 0.00110375
-0.524546 -0.0502902 0.00110317
-0.51202 -0.0503091 0.0011026
-0.499494 -0.0503279 0.00110202
-0.486962 -0.0503452 0.0011005
-0.47443 -0.0503754 0.00109872
-0.461898 -0.0504054 0.00109693
-0.449366 -0.0504354 0.00109515
-0.436834 -0.0504654 0.00109337
-0.424293 -0.0504704 0.0010887
-0.411752 -0.0505258 0.00108204
-0.39921 -0.0505807 0.00107541
-0.386669 -0.0506353 0.00106883
-0.374128 -0.0506896 0.00106228
-0.367853 -0.0507114 0.00105709
-0.361578 -0.0507659 0.00105284
-0.355302 -0.0508202 0.00104861
-0.349027 -0.0508743 0.00104439
-0.342751 -0.0509281 0.00104019
-0.336478 -0.0509646 0.00103485
-0.330205 -0.051037 0.00103036
-0.323932 -0.0511091 0.00102589
-0.317659 -0.0511808 0.00102145
-0.311385 -0.0512523 0.00101702
-0.305109 -0.051302 0.00101073
-0.298833 -0.0514008 0.00100513
-0.292557 -0.051499 0.000999562
-0.286282 -0.0515967 0.000994027
-0.280004 -0.0516938 0.000988521
-0.273728 -0.0517593 0.000980964
-0.267453 -0.051901 0.000973526
-0.261178 -0.0520416 0.000966147
-0.254904 -0.0521811 0.000958824
-0.248624 -0.0523196 0.000951555
-0.242358 -0.05241 0.000942239
-0.236096 -0.0526355 0.000931381
-0.229833 -0.0528583 0.000920653
-0.22357 -0.0530784 0.000910053
-0.217295 -0.0532964 0.000899559
-0.211049 -0.0534338 0.000887797
-0.204812 -0.0538045 0.000873385
-0.198575 -0.0541689 0.000859215
-0.192338 -0.0545272 0.000845283
-0.186067 -0.0548814 0.000831511
-0.182944 -0.0549908 0.000825685
-0.179828 -0.0552231 0.000820855
-0.176711 -0.0554541 0.000816054
-0.173595 -0.0556836 0.000811282
-0.170452 -0.0559137 0.000806498
-0.167328 -0.0560314 0.000798413
-0.164212 -0.0562808 0.00079551
-0.161096 -0.0565293 0.000792618
-0.157979 -0.0567768 0.000789737
-0.154833 -0.0570258 0.000786839
-0.151686 -0.0571533 0.000784783
-0.14855 -0.057433 0.000783451
-0.145413 -0.0577122 0.00078212
-0.142276 -0.057991 0.000780792
-0.139104 -0.0582724 0.000779451
-0.135928 -0.0584125 0.000779425
-0.132766 -0.0587313 0.00078033
-0.129603 -0.0590411 0.00078132
-0.126438 -0.0593306 0.000782501
-0.123237 -0.0596037 0.000783877
-0.120025 -0.0597626 0.000786301
-0.11682 -0.0600349 0.000790297
-0.113613 -0.0602845 0.000794618
-0.110404 -0.0605128 0.000799247
-0.107186 -0.0607219 0.000804179
-0.107032 -0.0607309 0.000804423
-0.106878 -0.0607401 0.000804679
-0.106724 -0.0607492 0.000804943
-0.10657 -0.0607584 0.000805216
-0.106425 -0.0607671 0.00080548
-0.103326 -0.0609526 0.000811287
-0.100229 -0.0611744 0.000819347
-0.0971333 -0.06141 0.000827041
-0.0940385 -0.0616596 0.000834349
-0.0909404 -0.0619239 0.000841261
-0.0876965 -0.0621533 0.000850447
-0.0844607 -0.0624778 0.000857717
-0.0812272 -0.0628236 0.000864408
-0.0779956 -0.0631873 0.000870159
-0.0747576 -0.06354 0.000875884
-0.0716023 -0.0636951 0.00088548
-0.0684601 -0.064022 0.000889612
-0.0653223 -0.0643883 0.000892515
-0.0621846 -0.0647557 0.000895427
-0.0590556 -0.0650777 0.000899798
-0.0560802 -0.0652207 0.000909243
-0.0531138 -0.0654917 0.000911805
-0.0501518 -0.0658075 0.000911937
-0.0471897 -0.0661233 0.000912068
-0.0442234 -0.0664228 0.00091848
-0.0412813 -0.0666775 0.000941378
-0.0383398 -0.0669406 0.000947462
-0.0353985 -0.0672062 0.000945907
-0.0324572 -0.0674715 0.000944355
-0.0295138 -0.0677221 0.000952452
-0.0265378 -0.0679461 0.000981654
-0.0235609 -0.0681606 0.000988394
-0.0205836 -0.0683682 0.00098279
-0.0176062 -0.0685746 0.000977216
-0.0146315 -0.0687374 0.000976205
-0.0116198 -0.0688208 0.000983837
-0.0086089 -0.0689295 0.000979907
-0.0055985 -0.069051 0.000969781
-0.00258806 -0.0691713 0.00095975
0.000425868 -0.0692827 0.000963095
0.0034611 -0.0693755 0.000989339
0.00649734 -0.0694314 0.000991997
0.00953392 -0.0694619 0.000979182
0.0125705 -0.069492 0.000966517
0.0156023 -0.0695177 0.000967608
0.0186449 -0.0695359 0.000990695
0.0216874 -0.0694985 0.000992446
0.0247292 -0.0694281 0.000979653
0.0277711 -0.0693584 0.000967009
0.0308135 -0.0692935 0.000966535
0.0338432 -0.0692403 0.000985654
0.036871 -0.0691212 0.000986302
0.0398973 -0.0689674 0.000974693
0.0429236 -0.0688152 0.000963207
0.0459563 -0.0686981 0.000953493
0.0489743 -0.0686485 0.000947181
0.0519874 -0.0684708 0.000939027
0.0549963 -0.0682327 0.000930037
0.0580053 -0.0679966 0.000921126
0.0610249 -0.06781 0.000911941
0.0640585 -0.067735 0.000902067
0.0670841 -0.0675026 0.000892978
0.0701044 -0.0672093 0.000884252
0.0731249 -0.0669185 0.000875605
0.0761556 -0.0666496 0.000868849
0.0792608 -0.0664318 0.000867079
0.0823571 -0.0661112 0.000859505
0.08545 -0.0657594 0.000850097
0.0885433 -0.0654112 0.000840784
0.0916612 -0.0650854 0.000831721
0.0948216 -0.0648357 0.000823447
0.0979741 -0.064501 0.000810443
0.101125 -0.0641557 0.000796775
0.104277 -0.0638158 0.000783322
0.107453 -0.0634953 0.000769912
0.110645 -0.0633911 0.000755719
0.113825 -0.0631018 0.000740176
0.117006 -0.0628248 0.000725069
0.120189 -0.0625673 0.000710542
0.123401 -0.0623267 0.000696453
0.126587 -0.0621742 0.000684403
0.12977 -0.0619839 0.000671885
0.132955 -0.0618077 0.00065981
0.13614 -0.0616448 0.000648161
0.139329 -0.0614947 0.000636911
0.140713 -0.0614418 0.000632347
0.142097 -0.0613868 0.000627943
0.143481 -0.061335 0.000623734
0.144865 -0.061285 0.00061958
0.146367 -0.0612324 0.00061513
0.148127 -0.0611731 0.000609993
0.149887 -0.0611106 0.000605003
0.151647 -0.0610447 0.000600163
0.153407 -0.0609754 0.000595476
0.155168 -0.0609024 0.000590941
0.158315 -0.0608004 0.000582113
0.161461 -0.0606651 0.000575605
0.164607 -0.0605193 0.000569513
0.167752 -0.0603623 0.000563849
0.170905 -0.0601927 0.000558618
0.174044 -0.0601034 0.000551242
0.177178 -0.059929 0.000547203
0.180312 -0.0597423 0.000543514
0.183446 -0.0595471 0.000540084
0.186597 -0.059352 0.000536655
0.189732 -0.0592583 0.000536683
0.192862 -0.0590826 0.000533733
0.195993 -0.0589079 0.0005308
0.199124 -0.0587342 0.000527883
0.202269 -0.0585606 0.000524969
0.205402 -0.0584774 0.000525042
0.208532 -0.0583226 0.000521719
0.211662 -0.0581687 0.000518416
0.214793 -0.0580158 0.000515134
0.217933 -0.0578634 0.000511862
0.224191 -0.0577429 0.000503123
0.230445 -0.057511 0.000502653
0.2367 -0.0572794 0.000502183
0.242955 -0.057048 0.000501714
0.24922 -0.0568164 0.000501244
0.255491 -0.0567122 0.000511517
0.261762 -0.0565679 0.000509735
0.268032 -0.0564242 0.000507959
0.274302 -0.056281 0.00050619
0.280575 -0.0561382 0.000504426
0.286863 -0.0560924 0.000500681
0.293151 -0.0559981 0.000498068
0.299439 -0.0559042 0.000495469
0.305727 -0.0558109 0.000492884
0.312016 -0.055718 0.000490312
0.318314 -0.0556801 0.000494919
0.324611 -0.0556091 0.000491962
0.330908 -0.0555384 0.000489022
0.337205 -0.0554682 0.0004861
0.343503 -0.0553984 0.000483195
0.349802 -0.0553716 0.000479573
0.356101 -0.0553145 0.000476511
0.3624 -0.0552578 0.000473469
0.368699 -0.0552014 0.000470446
0.374998 -0.0551454 0.000467442
0.381289 -0.055123 0.00046393
0.387579 -0.0550746 0.000460988
0.393869 -0.0550266 0.000458064
0.400159 -0.0549788 0.000455158
0.406449 -0.0549314 0.000452271
0.412727 -0.0549119 0.000449022
0.419004 -0.0548695 0.000446282
0.425282 -0.0548274 0.000443559
0.431559 -0.0547856 0.000440852
0.437837 -0.054744 0.000438162
0.4441 -0.0547265 0.000435282
0.450362 -0.0546887 0.000432819
0.456624 -0.0546512 0.00043037
0.462887 -0.0546138 0.000427935
0.46915 -0.0545767 0.000425513
0.475399 -0.0545608 0.000423099
0.481649 -0.0545268 0.000421054
0.487898 -0.054493 0.000419019
0.494148 -0.0544594 0.000416994
0.500398 -0.0544259 0.000414978
0.506641 -0.0544091 0.000416485
0.512885 -0.0543779 0.00041486
0.519128 -0.0543469 0.000413242
0.525371 -0.054316 0.00041163
0.531615 -0.0542853 0.000410024
0.537853 -0.0542714 0.000408667
0.544092 -0.0542429 0.000407576
0.550331 -0.0542144 0.000406488
0.55657 -0.054186 0.000405403
0.562809 -0.0541576 0.000404321
0.569041 -0.0541431 0.000405991
0.575273 -0.0541165 0.000405261
0.581505 -0.05409 0.000404532
0.587737 -0.0540635 0.000403804
0.59397 -0.0540371 0.000403078
0.600196 -0.0540245 0.000402663
0.606422 -0.0539998 0.000402207
0.612648 -0.0539752 0.000401752
0.618874 -0.0539506 0.000401297
0.6251 -0.053926 0.000400843
0.631325 -0.0539132 0.000402706
0.637551 -0.0538902 0.000402466
0.643777 -0.0538671 0.000402226
0.650002 -0.053844 0.000401987
0.656228 -0.053821 0.000401747
0.66246 -0.0538092 0.00040197
0.668691 -0.0537877 0.000401907
0.674923 -0.0537661 0.000401844
0.681154 -0.0537445 0.00040178
0.687386 -0.053723 0.000401717
0.693627 -0.0537117 0.000402184
0.699869 -0.0536915 0.000402256
0.70611 -0.0536714 0.000402328
0.712352 -0.0536512 0.0004024
0.718593 -0.0536311 0.000402472
0.724846 -0.0536202 0.000403131
0.731099 -0.0536015 0.000403273
0.737352 -0.0535827 0.000403415
[...]
POINT_DATA 20517
 FIELD attributes 2
p 1 20517 float
18.543 18.5486 18.5541 18.5597 18.5652 18.5708 18.8666 19.1625 19.4584 19.7543 20.0917 20.4585 20.8082 21.1579 21.5077 21.8541 22.2417 22.6237 23.0057 23.3877 23.7815 24.243 24.6839 25.1249 25.5659 26.0079 26.5301 27.0423 27.5545 28.0667 28.5992 29.2386 29.8276 30.4167 31.0058 31.5917 32.2952 32.9668 33.6384 34.3101 35.0247 35.9182 36.6693 37.4205 38.1716 38.904 39.8413 40.6554 41.4694 42.2835 43.1946 44.5863 45.4324 46.2786 47.1248 48.4764 49.1102 49.6501 50.2364 50.8228 51.3138 51.703 51.7535 51.804 52.175 52.3077 52.6776 52.8116 52.6159 52.4203 52.1346 51.972 51.306 50.6404 50.363 49.8872 49.5218 48.5763 47.1356 45.6962 44.3022 42.5662 40.1184 37.674 35.5967 32.6129 31.1673 29.7627 28.3124 26.863 25.4976 23.1836 20.8679 18.5527 16.3618 14.3366 11.6097 8.9612 6.3841 3.80728 1.22214 -2.40014 -5.27205 -8.08124 -10.8851 -13.5224 -17.0033 -19.9521 -22.9001 -25.847 -28.8053 -28.9858 -29.1222 -29.2586 -29.3949 -29.5231 -32.2973 -35.0055 -37.7072 -40.4023 -42.6849 -44.7103 -47.1041 -49.4514 -51.717 -53.5802 -54.6125 -56.5721 -58.8305 -60.2434 -62.4485 -62.7475 -63.2321 -64.3237 -65.9345 -68.1455 -67.2554 -67.0125 -67.2725 -68.0606 -69.4765 -68.1053 -67.3462 -67.3605 -68.054 -69.253 -68.2601 -67.7593 -67.8847 -68.8945 -70.5772 -69.3252 -68.6316 -68.8539 -69.7886 -71.258 -70.1269 -69.4269 -69.5817 -70.3281 -71.4683 -70.1625 -69.4158 -69.4883 -69.8542 -70.5994 -69.4567 -68.8262 -68.8451 -69.1775 -69.7873 -68.4293 -68.0111 -68.2516 -69.2305 -71.2125 -69.7486 -69.2123 -69.1125 -69.5768 -70.7652 -68.6226 -67.2515 -65.3079 -63.454 -62.6571 -60.3631 -58.1076 -55.8337 -53.5402 -51.7811 -49.7619 -47.7435 -45.7162 -43.6804 -41.7328 -40.9093 -40.0915 -39.2708 -38.4494 -37.5569 -36.4955 -35.4347 -34.3746 -33.3153 -32.1629 -30.4785 -28.8102 -27.142 -25.4741 -23.6023 -22.1065 -20.6469 -19.1875 -17.7316 -16.0734 -14.7647 -13.2866 -11.8088 -10.3311 -8.6928 -7.59913 -6.6708 -5.74271 -4.81544 -4.07301 -2.75976 -1.64538 -0.531049 0.660946 2.10789 2.12028 2.34239 2.56437 2.7862 2.76744 2.20426 1.66133 1.11825 0.575031 -0.269517 -1.52342 -2.39713 -3.26652 -4.13598 -5.00864 -6.10875 -7.0977 -8.08672 -9.09501 -10.3224 -11.6486 -12.7252 -13.7865 -14.8479 -15.8796 -17.0101 -18.0481 -19.0861 -20.1373 -21.2168 -22.2777 -23.2069 -24.1291 -25.0513 -25.9027 -26.7476 -27.5056 -28.2635 -29.0275 -29.7344 -30.4197 -30.9937 -31.5622 -32.1307 -32.62 -33.0839 -33.4572 -33.8306 -34.2086 -34.5067 -34.7772 -34.956 -35.1345 -35.3129 -35.4043 -35.4799 -35.4774 -35.475 -35.4713 -35.3838 -35.3017 -35.1461 -34.9904 -34.8347 -34.6089 -34.392 -34.1147 -33.8373 -33.56 -33.2218 -32.892 -32.5142 -32.1387 -31.7633 -31.3359 -30.9268 -30.4806 -30.0344 -29.582 -29.0831 -28.6168 -28.1285 -27.6441 -27.1598 -26.6477 -26.1626 -25.6552 -25.1477 -24.6402 -24.1078 -23.5735 -23.015 -22.4578 -21.9006 -21.3206 -20.6994 -20.0596 -19.4197 -18.7732 -18.1 -17.3438 -16.5788 -15.8243 -15.0698 -14.2944 -13.4058 -12.5056 -11.6053 -10.689 -9.74373 -8.61936 -7.50358 -6.4116 -5.31962 -4.21149 -2.88242 -1.55718 -0.231934 1.13559 2.54487 4.27324 5.9499 7.55569 9.16147 10.7879 12.7466 14.6742 16.6019 18.6391 20.759 23.3053 25.6961 27.927 30.1578 32.3987 34.9223 37.3049 39.6874 42.2916 45.0149 47.9654 50.4697 52.6848 54.8999 57.0396 58.9413 60.4282 61.9152 63.714 65.6422 67.0881 67.3525 67.2138 67.0761 66.6277 65.0424 62.4105 59.7825 57.4672 55.9006 54.2154 52.3482 49.8417 47.2685 44.5912 41.3085 37.6934 34.0806 30.9218 27.6478 23.3172 18.7648 13.8337 8.90618 4.1061 -2.72208 -9.52429 -16.3222 -23.1158 -29.3875 -39.6791 -48.1513 -55.9413 -63.701 -71.439 -72.1401 -72.5582 -72.9765 -73.3948 -73.7836 -83.0163 -92.2459 -101.471 -110.779 -117.568 -127.485 -138.308 -149.136 -159.97 -167.553 -177.919 -183.078 -188.107 -192.777 -193.768 -207.86 -217.296 -218.819 -211.12 -204.553 -205.168 -205.799 -206.445 -207.108 -207.614 -208.683 -211.151 -213.617 -216.083 -217.353 -216.655 -214.331 -211.678 -207.391 -204.588 -202.473 -200.344 -198.229 -196.115 -194.717 -188.65 -181.746 -174.839 -167.929 -161.318 -156.802 -152.239 -147.676 -143.115 -139.091 -137.036 -135.41 -133.78 -132.274 -130.989 -130.902 -130.815 -130.727 -130.64 -130.564 -130.763 -128.523 -126.312 -124.133 -120.404 -117.239 -114.662 -112.116 -109.602 -105.612 -109.573 -111.657 -105.527 -99.564 -95.0114 -94.9152 -94.8189 -94.7227 -94.6264 -94.5196 -93.8976 -93.29 -92.6827 -92.0757 -91.9346 -89.851 -87.7777 -85.7151 -83.6636 -80.0317 -77.8085 -75.5785 -73.3418 -71.0986 -69.2842 -68.0378 -66.9797 -65.9327 -64.8968 -63.2986 -60.8942 -58.5607 -56.302 -54.2306 -52.391 -52.0795 -51.7538 -51.4259 -51.0982 -50.8254 -49.5467 -48.2838 -47.0356 -45.862 -44.9235 -44.2636 -43.756 -43.5894 -42.8201 -41.9005 -41.524 -41.1599 -40.1982 -39.2846 -37.9773 -36.76 -35.7392 -34.6713 -33.5755 -32.4755 -32.3395 -32.241 -32.1422 -32.0432 -31.9525 -31.2253 -30.5057 -29.7708 -29.0245 -28.2854 -28.0789 -28.0991 -28.1294 -28.1948 -28.2802 -29.8059 -29.8701 -28.8791 -27.7909 -26.3889 -25.958 -25.5334 -25.1279 -24.7252 -24.2983 -24.2924 -24.2786 -24.2662 -24.2431 -24.1913 -24.1824 -24.1737 -24.165 -24.1564 -24.1649 -24.4233 -24.7291 -25.0329 -25.3346 -25.768 -25.7528 -25.7133 -25.6731 -25.6322 -25.7064 -24.922 -24.5314 -24.1375 -23.7399 -24.2503 -23.5945 -23.2373 -23.2261 -22.5913 -22.3262 -21.4693 -20.8871 -20.1625 -19.4379 -19.0266 -18.3463 -17.7973 -17.2484 -16.7042 -16.3246 -15.6104 -15.0419 -14.4694 -13.8969 -13.4948 -12.7503 -12.1794 -11.6085 -11.0396 -10.656 -9.99111 -9.49103 -8.99189 -8.49279 -8.16746 -7.58438 -7.16906 -6.75378 -6.33854 -6.06925 -5.55769 -5.21576 -4.87388 -4.53207 -4.35791 -3.90103 -3.61806 -3.34178 -3.06527 -2.9299 -2.55478 -2.31375 -2.07254 -1.83117 -1.69459 -1.38209 -1.16605 -0.949896 -0.733622 -0.606633 -0.338838 -0.154328 0.0302482 0.214889 0.328561 0.541786 0.688257 0.834772 0.98133 1.07495 1.25275 1.37409 1.49545 1.61685 1.69692 1.86848 1.98637 2.10429 2.22223 2.29025 2.45925 2.57026 2.68128 2.79232 2.84099 2.98949 3.0775 3.16552 3.25354 3.27329 3.40503 3.47273 3.54043 3.60812 3.60398 3.72861 3.7876 3.84658 3.90553 3.8876 4.0055 4.05572 4.1059 4.15605 4.12401 4.23085 4.26699 4.30311 4.3392 4.28945 4.38526 4.40811 4.43093 4.45373 4.39049 4.4745 4.48609 4.49766 4.50749 4.43097 4.4985 4.49456 4.49065 4.48679 4.41165 4.45565 4.44025 4.42487 4.40952 4.33408 4.35542 4.33314 4.3109 4.28869 4.22003 4.23239 4.20758 4.18279 4.15803 4.08955 4.08843 4.05976 4.03112 4.0025 3.94199 3.93334 3.89907 3.86483 3.8306 3.76578 3.7438 3.70581 3.66784 3.6299 3.57307 3.55034 3.51303 3.47574 3.43846 3.38182 3.35433 3.3185 3.28268 3.24689 3.19756 3.17353 3.13767 3.10183 3.06601 3.01682 2.98642 2.95025 2.9141 2.87797 2.83383 2.80494 2.76906 2.7332 2.69735 2.65114 2.62128 2.58531 2.54936 2.51343 2.47061 2.44188 2.40644 2.371 2.33558 2.29348 2.26584 2.23245 2.19908 2.16571 2.12882 2.10208 2.0715 2.04094 2.01039 1.97516 1.95141 1.92264 1.89387 1.86512 1.83222 1.80926 1.78172 1.75419 1.72667 1.69691 1.67433 1.64875 1.62319 1.59763 1.56997 1.54892 1.52532 1.50174 1.47816 1.45186 1.43393 1.41167 1.38943 1.36719 1.34208 1.3247 1.30386 1.28304 1.26222 1.23971 1.2252 1.20623 1.18727 1.16832 1.1478 1.13293 1.11596 1.09901 1.08206 1.06503 1.05352 1.03824 1.02297 1.0077 0.990124 0.978902 0.964766 0.950637 0.936516 0.922914 0.914212 0.901408 0.88861 0.875818 0.861549 0.851963 0.840408 0.828859 0.817316 0.805896 0.799919 0.789006 0.7781 0.767199 0.754301 0.746477 0.736194 0.725916 0.715643 0.706164 0.702156 0.693015 0.68388 0.674749 0.664293 0.658214 0.650422 0.642635 0.634853 0.628171 0.626343 0.61952 0.612701 0.605885 0.597424 0.593441 0.587432 0.581427 0.575426 0.571214 0.570757 0.565763 0.560773 0.555787 0.549616 0.546811 0.542508 0.538209 0.533914 0.531256 0.532246 0.528273 0.524304 0.520337 0.514983 0.513075 0.509482 0.505892 0.502305 0.500728 0.502686 0.499691 0.496699 0.49371 0.489691 0.48863 0.486307 0.483985 0.481667 0.48178 0.484694 0.482893 0.481094 0.479297 0.476359 0.476103 0.474474 0.472847 0.471221 0.47233 0.475602 0.474132 0.472664 0.471198 0.468854 0.468587 0.467258 0.465931 0.464606 0.465912 0.469312 0.467904 0.466498 0.465093 0.46275 0.462394 0.460929 0.459465 0.458002 0.459371 0.462779 0.461431 0.460084 0.458739 0.456657 0.456364 0.455196 0.45403 0.452865 0.454584 0.458147 0.457085 0.456024 0.454965 0.453141 0.453014 0.45199 0.450966 0.449944 0.451972 0.455435 0.454495 0.453555 0.452616 0.451055 0.45085 0.449917 0.448985 0.448053 0.450075 0.453369 0.452319 0.451269 0.450219 0.448536 0.448032 0.446792 0.445553 0.444315 0.446016 0.448778 0.447342 0.445907 0.444472 0.442507 0.44149 0.439863 0.438238 0.436612 0.43796 0.440203 0.438392 0.436581 0.434771 0.432432 0.430944 0.428849 0.426755 0.42466 0.425562 0.427042 0.424578 0.422115 0.419652 0.416735 0.414362 0.411474 0.408587 0.4057 0.405696 0.406097 0.40269 0.399283 0.395877 0.392024 0.388545 0.384564 0.380583 0.376602 0.375391 0.374345 0.369732 0.36512 0.360508 0.355509 0.350634 0.345328 0.340023 0.334718 0.332019 0.329331 0.323304 0.317276 0.311249 0.304847 0.298478 0.291693 0.284909 0.278124 0.273781 0.269194 0.261611 0.254029 0.246447 0.238535 0.230508 0.22212 0.213732 0.205345 0.199083 0.192525 0.183349 0.174173 0.164998 0.155505 0.14605 0.13625 0.126451 0.116651 0.108621 0.100479 0.0900671 0.0796555 0.069244 0.0585483 0.0485803 0.038309 0.0280379 0.0177669 0.00926683 0.00154825 -0.00902458 -0.0195973 -0.0301699 -0.0410166 -0.0486397 -0.0565593 -0.0644788 -0.0723982 -0.0765061 -0.083115 -0.0950836 -0.107052 -0.11902 -0.131312 -0.093816 -0.0566093 -0.0194025 0.0178043 0.0553704 0.11797 0.179696 0.241422 0.303148 0.341289 0.364929 0.388048 0.411166 0.434285 0.465474 0.506197 0.546062 0.585927 0.625793 0.701975 0.493361 0.272716 0.052071 -0.168574 -0.389458 -0.442214 -0.494956 -0.547698 -0.60044 -0.644195 -0.721776 -0.799896 -0.878016 -0.956135 -0.969248 -1.03494 -1.10046 -1.16598 -1.2315 -1.28616 -0.832468 -0.378744 0.0749809 0.528705 0.94347 0.930688 0.917867 0.905047 0.892227 0.879812 0.790712 0.701598 0.612485 0.523371 0.436284 0.385501 0.334712 0.283924 0.233135 0.183407 0.156043 0.151713