# vtk DataFile Version 2.0
track0
ASCII
DATASET POLYDATA
POINTS 20517 float
-1.001 -0.05 0.0011
-1.00079 -0.05 0.0011
-1.00058 -0.0500001 0.0011
-1.00038 -0.0500001 0.0011
-1.00017 -0.0500002 0.00110001
-0.999962 -0.0500002 0.00110001
-0.98746 -0.0500027 0.00110016
-0.974958 -0.0500074 0.00109998
-0.962456 -0.0500121 0.00109981
-0.949954 -0.0500168 0.00109963
-0.937452 -0.0500214 0.00109946
-0.924948 -0.0500217 0.00109968
-0.912445 -0.0500269 0.00109975
-0.899941 -0.050032 0.00109983
-0.887437 -0.0500372 0.0010999
-0.874933 -0.0500424 0.00109998
-0.862428 -0.0500428 0.00110029
-0.849922 -0.0500486 0.00110053
-0.837416 -0.0500545 0.00110077
-0.82491 -0.0500604 0.00110101
-0.812404 -0.0500663 0.00110125
-0.799896 -0.0500704 0.00110155
-0.787388 -0.0500772 0.00110185
-0.774879 -0.050084 0.00110215
-0.762371 -0.0500908 0.00110244
-0.749862 -0.0500977 0.00110274
-0.737351 -0.0501028 0.001103
-0.724839 -0.050111 0.00110329
-0.712327 -0.0501193 0.00110357
-0.699816 -0.0501276 0.00110385
-0.687304 -0.0501358 0.00110414
-0.674789 -0.0501368 0.00110433
-0.662273 -0.0501471 0.00110452
-0.649757 -0.0501575 0.00110471
-0.637242 -0.0501678 0.0011049
-0.624726 -0.0501782 0.00110509
-0.612206 -0.0501867 0.001105
-0.599685 -0.0502003 0.00110497
-0.587165 -0.0502138 0.00110494
-0.574644 -0.0502273 0.00110492
-0.562124 -0.0502408 0.00110489
-0.549598 -0.0502525 0.00110433
-0.537072 -0.0502714 0.00110375
-0.524546 -0.0502902 0.00110317
-0.51202 -0.0503091 0.0011026
-0.499494 -0.0503279 0.00110202
-0.486962 -0.0503452 0.0011005
-0.47443 -0.0503754 0.00109872
-0.461898 -0.0504054 0.00109693
-0.449366 -0.0504354 0.00109515
-0.436834 -0.0504654 0.00109337
-0.424293 -0.0504704 0.0010887
-0.411752 -0.0505258 0.00108204
-0.39921 -0.0505807 0.00107541
-0.386669 -0.0506353 0.00106883
-0.374128 -0.0506896 0.00106228
-0.367853 -0.0507114 0.00105709
-0.361578 -0.0507659 0.00105284
-0.355302 -0.0508202 0.00104861
-0.349027 -0.0508743 0.00104439
-0.342751 -0.0509281 0.00104019
-0.336478 -0.0509646 0.00103485
-0.330205 -0.051037 0.00103036
-0.323932 -0.0511091 0.00102589
-0.317659 -0.0511808 0.00102145
-0.311385 -0.0512523 0.00101702
-0.305109 -0.051302 0.00101073
-0.298833 -0.0514008 0.00100513
-0.292557 -0.051499 0.000999562
-0.286282 -0.0515967 0.000994027
-0.280004 -0.0516938 0.000988521
-0.273728 -0.0517593 0.000980964
-0.267453 -0.051901 0.000973526
-0.261178 -0.0520416 0.000966147
-0.254904 -0.0521811 0.000958824
-0.248624 -0.0523196 0.000951555
-0.242358 -0.05241 0.000942239
-0.236096 -0.0526355 0.000931381
-0.229833 -0.0528583 0.000920653
-0.22357 -0.0530784 0.000910053
-0.217295 -0.0532964 0.000899559
-0.211049 -0.0534338 0.000887797
-0.204812 -0.0538045 0.000873385
-0.198575 -0.0541689 0.000859215
-0.192338 -0.0545272 0.000845283
-0.186067 -0.0548814 0.000831511
-0.182944 -0.0549908 0.000825685
-0.179828 -0.0552231 0.000820855
-0.176711 -0.0554541 0.000816054
-0.173595 -0.0556836 0.000811282
-0.170452 -0.0559137 0.000806498
-0.167328 -0.0560314 0.000798413
-0.164212 -0.0562808 0.00079551
-0.161096 -0.0565293 0.000792618
-0.157979 -0.0567768 0.000789737
-0.154833 -0.0570258 0.000786839
-0.151686 -0.0571533 0.000784783
-0.14855 -0.057433 0.000783451
-0.145413 -0.0577122 0.00078212
-0.142276 -0.057991 0.000780792
-0.139104 -0.0582724 0.000779451
-0.135928 -0.0584125 0.000779425
-0.132766 -0.0587313 0.00078033
-0.129603 -0.0590411 0.00078132
-0.126438 -0.0593306 0.000782501
-0.123237 -0.0596037 0.000783877
-0.120025 -0.0597626 0.000786301
-0.11682 -0.0600349 0.000790297
-0.113613 -0.0602845 0.000794618
-0.110404 -0.0605128 0.000799247
-0.107186 -0.0607219 0.000804179
-0.107032 -0.0607309 0.000804423
-0.106878 -0.0607401 0.000804679
-0.106724 -0.0607492 0.000804943
-0.10657 -0.0607584 0.000805216
-0.106425 -0.0607671 0.00080548
-0.103326 -0.0609526 0.000811287
-0.100229 -0.0611744 0.000819347
-0.0971333 -0.06141 0.000827041
-0.0940385 -0.0616596 0.000834349
-0.0909404 -0.0619239 0.000841261
-0.0876965 -0.0621533 0.000850447
-0.0844607 -0.0624778 0.000857717
-0.0812272 -0.0628236 0.000864408
-0.0779956 -0.0631873 0.000870159
-0.0747576 -0.06354 0.000875884
-0.0716023 -0.0636951 0.00088548
-0.0684601 -0.064022 0.000889612
-0.0653223 -0.0643883 0.000892515
-0.0621846 -0.0647557 0.000895427
-0.0590556 -0.0650777 0.000899798
-0.0560802 -0.0652207 0.000909243
-0.0531138 -0.0654917 0.000911805
-0.0501518 -0.0658075 0.000911937
-0.0471897 -0.0661233 0.000912068
-0.0442234 -0.0664228 0.00091848
-0.0412813 -0.0666775 0.000941378
-0.0383398 -0.0669406 0.000947462
-0.0353985 -0.0672062 0.000945907
-0.0324572 -0.0674715 0.000944355
-0.0295138 -0.0677221 0.000952452
-0.0265378 -0.0679461 0.000981654
-0.0235609 -0.0681606 0.000988394
-0.0205836 -0.0683682 0.00098279
-0.0176062 -0.0685746 0.000977216
-0.0146315 -0.0687374 0.000976205
-0.0116198 -0.0688208 0.000983837
-0.0086089 -0.0689295 0.000979907
-0.0055985 -0.069051 0.000969781
-0.00258806 -0.0691713 0.00095975
0.000425868 -0.0692827 0.000963095
0.0034611 -0.0693755 0.000989339
0.00649734 -0.0694314 0.000991997
0.00953392 -0.0694619 0.000979182
0.0125705 -0.069492 0.000966517
0.0156023 -0.0695177 0.000967608
0.0186449 -0.0695359 0.000990695
0.0216874 -0.0694985 0.000992446
0.0247292 -0.0694281 0.000979653
0.0277711 -0.0693584 0.000967009
0.0308135 -0.0692935 0.000966535
0.0338432 -0.0692403 0.000985654
0.036871 -0.0691212 0.000986302
0.0398973 -0.0689674 0.000974693
0.0429236 -0.0688152 0.000963207
0.0459563 -0.0686981 0.000953493
0.0489743 -0.0686485 0.000947181
0.0519874 -0.0684708 0.000939027
0.0549963 -0.0682327 0.000930037
0.0580053 -0.0679966 0.000921126
0.0610249 -0.06781 0.000911941
0.0640585 -0.067735 0.000902067
0.0670841 -0.0675026 0.000892978
0.0701044 -0.0672093 0.000884252
0.0731249 -0.0669185 0.000875605
0.0761556 -0.0666496 0.000868849
0.0792608 -0.0664318 0.000867079
0.0823571 -0.0661112 0.000859505
0.08545 -0.0657594 0.000850097
0.0885433 -0.0654112 0.000840784
0.0916612 -0.0650854 0.000831721
0.0948216 -0.0648357 0.000823447
0.0979741 -0.064501 0.000810443
0.101125 -0.0641557 0.000796775
0.104277 -0.0638158 0.000783322
0.107453 -0.0634953 0.000769912
0.110645 -0.0633911 0.000755719
0.113825 -0.0631018 0.000740176
0.117006 -0.0628248 0.000725069
0.120189 -0.0625673 0.000710542
0.123401 -0.0623267 0.000696453
0.126587 -0.0621742 0.000684403
0.12977 -0.0619839 0.000671885
0.132955 -0.0618077 0.00065981
0.13614 -0.0616448 0.000648161
0.139329 -0.0614947 0.000636911
0.140713 -0.0614418 0.000632347
0.142097 -0.0613868 0.000627943
0.143481 -0.061335 0.000623734
0.144865 -0.061285 0.00061958
0.146367 -0.0612324 0.00061513
0.148127 -0.0611731 0.000609993
0.149887 -0.0611106 0.000605003
0.151647 -0.0610447 0.000600163
0.153407 -0.0609754 0.000595476
0.155168 -0.0609024 0.000590941
0.158315 -0.0608004 0.000582113
0.161461 -0.0606651 0.000575605
0.164607 -0.0605193 0.000569513
0.167752 -0.0603623 0.000563849
0.170905 -0.0601927 0.000558618
0.174044 -0.0601034 0.000551242
0.177178 -0.059929 0.000547203
0.180312 -0.0597423 0.000543514
0.183446 -0.0595471 0.000540084
0.186597 -0.059352 0.000536655
0.189732 -0.0592583 0.000536683
0.192862 -0.0590826 0.000533733
0.195993 -0.0589079 0.0005308
0.199124 -0.0587342 0.000527883
0.202269 -0.0585606 0.000524969
0.205402 -0.0584774 0.000525042
0.208532 -0.0583226 0.000521719
0.211662 -0.0581687 0.000518416
0.214793 -0.0580158 0.000515134
0.217933 -0.0578634 0.000511862
0.224191 -0.0577429 0.000503123
0.230445 -0.057511 0.000502653
0.2367 -0.0572794 0.000502183
0.242955 -0.057048 0.000501714
0.24922 -0.0568164 0.000501244
0.255491 -0.0567122 0.000511517
0.261762 -0.0565679 0.000509735
0.268032 -0.0564242 0.000507959
0.274302 -0.056281 0.00050619
0.280575 -0.0561382 0.000504426
0.286863 -0.0560924 0.000500681
0.293151 -0.0559981 0.000498068
0.299439 -0.0559042 0.000495469
0.305727 -0.0558109 0.000492884
0.312016 -0.055718 0.000490312
0.318314 -0.0556801 0.000494919
0.324611 -0.0556091 0.000491962
0.330908 -0.0555384 0.000489022
0.337205 -0.0554682 0.0004861
0.343503 -0.0553984 0.000483195
0.349802 -0.0553716 0.000479573
0.356101 -0.0553145 0.000476511
0.3624 -0.0552578 0.000473469
0.368699 -0.0552014 0.000470446
0.374998 -0.0551454 0.000467442
0.381289 -0.055123 0.00046393
0.387579 -0.0550746 0.000460988
0.393869 -0.0550266 0.000458064
0.400159 -0.0549788 0.000455158
0.406449 -0.0549314 0.000452271
0.412727 -0.0549119 0.000449022
0.419004 -0.0548695 0.000446282
0.425282 -0.0548274 0.000443559
0.431559 -0.0547856 0.000440852
0.437837 -0.054744 0.000438162
0.4441 -0.0547265 0.000435282
0.450362 -0.0546887 0.000432819
0.456624 -0.0546512 0.00043037
0.462887 -0.0546138 0.000427935
0.46915 -0.0545767 0.000425513
0.475399 -0.0545608 0.000423099
0.481649 -0.0545268 0.000421054
0.487898 -0.054493 0.000419019
0.494148 -0.0544594 0.000416994
0.500398 -0.0544259 0.000414978
0.506641 -0.0544091 0.000416485
0.512885 -0.0543779 0.00041486
0.519128 -0.0543469 0.000413242
0.525371 -0.054316 0.00041163
0.531615 -0.0542853 0.000410024
0.537853 -0.0542714 0.000408667
0.544092 -0.0542429 0.000407576
0.550331 -0.0542144 0.000406488
0.55657 -0.054186 0.000405403
0.562809 -0.0541576 0.000404321
0.569041 -0.0541431 0.000405991
0.575273 -0.0541165 0.000405261
0.581505 -0.05409 0.000404532
0.587737 -0.0540635 0.000403804
0.59397 -0.0540371 0.000403078
0.600196 -0.0540245 0.000402663
0.606422 -0.0539998 0.000402207
0.612648 -0.0539752 0.000401752
0.618874 -0.0539506 0.000401297
0.6251 -0.053926 0.000400843
0.631325 -0.0539132 0.000402706
0.637551 -0.0538902 0.000402466
0.643777 -0.0538671 0.000402226
0.650002 -0.053844 0.000401987
0.656228 -0.053821 0.000401747
0.66246 -0.0538092 0.00040197
0.668691 -0.0537877 0.000401907
0.674923 -0.0537661 0.000401844
0.681154 -0.0537445 0.00040178
0.687386 -0.053723 0.000401717
0.693627 -0.0537117 0.000402184
0.699869 -0.0536915 0.000402256
0.70611 -0.0536714 0.000402328
0.712352 -0.0536512 0.0004024
0.718593 -0.0536311 0.000402472
0.724846 -0.0536202 0.000403131
0.731099 -0.0536015 0.000403273
0.737352 -0.0535827 0.000403415
[...]
POINT_DATA 20517
 FIELD attributes 1
U 3 20517 float
19.9505 	-0.00425974 	0.000128449 19.9512 	-0.00421055 	0.000150804 19.9518 	-0.00416135 	0.000173158 19.9525 	-0.00411215 	0.000195512 19.9531 	-0.00406296 	0.000217867 19.9537 	-0.00401376 	0.000240221 19.9083 	-0.00745196 	-0.000279252 19.9083 	-0.00745077 	-0.000279207 19.9083 	-0.00744959 	-0.000279163 19.9083 	-0.0074484 	-0.000279118 19.9495 	-0.000416168 	0.000351292 19.8977 	-0.00822735 	0.000118831 19.8977 	-0.00822791 	0.000118839 19.8977 	-0.00822847 	0.000118847 19.8977 	-0.00822903 	0.000118855 19.9439 	-0.000578762 	0.000506455 19.8858 	-0.00934736 	0.000377698 19.8858 	-0.00934937 	0.00037778 19.8858 	-0.00935139 	0.000377861 19.8858 	-0.00935341 	0.000377943 19.9383 	-0.00651289 	0.000492012 19.872 	-0.01084 	0.000470102 19.872 	-0.0108429 	0.000470228 19.8719 	-0.0108458 	0.000470354 19.8719 	-0.0108487 	0.000470481 19.9311 	-0.00814831 	0.000420714 19.8556 	-0.013112 	0.000449855 19.8556 	-0.0131154 	0.000449971 19.8555 	-0.0131187 	0.000450087 19.8555 	-0.0131221 	0.000450202 19.9209 	-0.00150901 	0.000309497 19.8359 	-0.0163897 	0.000301373 19.8358 	-0.0163925 	0.000301424 19.8358 	-0.0163953 	0.000301476 19.8358 	-0.0163981 	0.000301528 19.9126 	-0.0136479 	-0.000151019 19.8106 	-0.0213894 	-4.13966e-05 19.8106 	-0.0213889 	-4.13956e-05 19.8106 	-0.0213884 	-4.13947e-05 19.8106 	-0.0213879 	-4.13937e-05 19.8994 	-0.0185994 	-0.000899182 19.774 	-0.0297828 	-0.000909382 19.7742 	-0.0297673 	-0.000908907 19.7743 	-0.0297517 	-0.000908433 19.7744 	-0.0297362 	-0.000907959 19.8792 	-0.0274609 	-0.00241331 19.7084 	-0.0473602 	-0.00280937 19.7089 	-0.0472833 	-0.00280481 19.7094 	-0.0472065 	-0.00280026 19.7098 	-0.0471299 	-0.00279571 19.8232 	-0.00796078 	-0.00738168 19.5724 	-0.0863285 	-0.0104056 19.5751 	-0.0857998 	-0.0103419 19.5777 	-0.0852745 	-0.0102786 19.5802 	-0.0847524 	-0.0102157 19.713 	-0.0685195 	-0.0163217 19.4457 	-0.168879 	-0.0131684 19.4479 	-0.1682 	-0.0131155 19.4501 	-0.167524 	-0.0130627 19.4523 	-0.166851 	-0.0130102 19.7263 	-0.114862 	-0.0168075 19.4283 	-0.224209 	-0.0138991 19.4308 	-0.223237 	-0.0138389 19.4333 	-0.222269 	-0.0137789 19.4357 	-0.221305 	-0.0137191 19.73 	-0.156434 	-0.019769 19.4139 	-0.305596 	-0.0173215 19.4172 	-0.303903 	-0.0172255 19.4204 	-0.30222 	-0.0171301 19.4236 	-0.300546 	-0.0170353 19.7302 	-0.20583 	-0.0237552 19.3803 	-0.437677 	-0.022973 19.385 	-0.434358 	-0.0227988 19.3896 	-0.431065 	-0.022626 19.3942 	-0.427798 	-0.0224545 19.7244 	-0.284519 	-0.0293242 19.2984 	-0.694815 	-0.0334571 19.3064 	-0.686809 	-0.0330716 19.3144 	-0.678898 	-0.0326907 19.3223 	-0.671081 	-0.0323143 19.7132 	-0.433792 	-0.0371221 19.2584 	-1.14458 	-0.0445031 19.2704 	-1.126 	-0.0437806 19.2823 	-1.10773 	-0.0430703 19.2939 	-1.08977 	-0.0423719 19.7263 	-0.691035 	-0.0367958 19.4531 	-1.45015 	-0.030152 19.4563 	-1.44166 	-0.0299756 19.4595 	-1.43323 	-0.0298003 19.4627 	-1.42485 	-0.029626 19.6989 	-0.742545 	-0.0509802 19.5906 	-1.56775 	-0.0182478 19.5921 	-1.56205 	-0.0181814 19.5936 	-1.55638 	-0.0181153 19.5951 	-1.55072 	-0.0180495 19.8631 	-0.805031 	-0.012977 19.7445 	-1.76058 	-0.0083887 19.7449 	-1.75759 	-0.00837445 19.7454 	-1.75461 	-0.00836023 19.7458 	-1.75163 	-0.00834603 19.9415 	-0.879726 	-0.000162521 19.9229 	-2.00845 	0.00569897 19.9289 	-1.95224 	0.00623908 19.9425 	-1.8235 	0.00744293 19.9554 	-1.70283 	0.00857918 20.0302 	-0.990842 	0.0151106 20.1496 	-1.71211 	0.0251213 20.1489 	-1.56783 	0.027149 20.1483 	-1.43391 	0.0290672 20.1479 	-1.30964 	0.0308838 20.146 	-1.17008 	0.0318982 20.1579 	-1.19939 	0.0334971 20.1642 	-1.20151 	0.0345924 20.1704 	-1.20364 	0.0356881 20.1766 	-1.20577 	0.0367843 20.1824 	-1.20778 	0.0378156 20.3277 	-1.45616 	0.0529046 20.3482 	-1.54834 	0.0505709 20.3692 	-1.64289 	0.0481016 20.3907 	-1.73986 	0.0454928 20.3237 	-1.43692 	0.0575471 20.6706 	-2.07277 	0.0464428 20.7387 	-2.21826 	0.042918 20.7772 	-2.33817 	0.0369752 20.7545 	-2.2608 	0.0366958 20.3678 	-1.00097 	0.0619403 21.0199 	-2.18692 	0.027643 21.1763 	-2.47198 	0.0195906 21.1801 	-2.48005 	0.0196545 21.0348 	-2.16446 	0.0293814 20.4914 	-0.984984 	0.0650522 21.2366 	-1.9403 	0.0183439 21.5125 	-2.29354 	0.000954206 21.5127 	-2.29387 	0.000954343 21.4151 	-2.16199 	0.0462926 21.1703 	-1.83266 	0.164762 21.5777 	-1.92968 	0.0446273 21.7597 	-1.96546 	-0.0115014 21.7568 	-1.96224 	-0.0114825 21.6113 	-1.83987 	0.0594489 21.3249 	-1.60482 	0.209248 21.7285 	-1.56631 	0.0491967 21.9383 	-1.52921 	-0.0412857 21.9274 	-1.52054 	-0.0410517 21.4963 	-1.17591 	-0.00730751 20.7442 	-0.574427 	0.0525656 21.5498 	-0.778036 	-0.0281277 21.9969 	-0.887802 	-0.0739908 21.9763 	-0.878628 	-0.0732262 21.7821 	-0.805036 	0.024173 21.3961 	-0.654132 	0.185001 21.8593 	-0.402188 	0.0191421 22.0734 	-0.22146 	-0.0931569 22.0466 	-0.218599 	-0.0919534 21.8239 	-0.184999 	0.00785687 21.394 	-0.128596 	0.162334 21.857 	0.268692 	0.0125816 22.068 	0.511381 	-0.0928119 22.0413 	0.504789 	-0.0916155 21.8066 	0.465369 	-0.0033968 21.3603 	0.375061 	0.134793 21.7935 	0.857051 	0.00466569 21.9911 	1.11791 	-0.0843628 21.9677 	1.10475 	-0.0833698 21.5295 	0.831243 	-0.0689579 20.7456 	0.340463 	-0.0433927 21.4487 	1.26535 	-0.0580416 21.7955 	1.72492 	-0.0651212 21.7784 	1.70841 	-0.0644977 21.4254 	1.32401 	-0.0651684 20.6817 	0.511454 	-0.0673175 21.3498 	1.63996 	-0.0641366 21.62 	2.09974 	-0.0624605 21.6041 	2.07922 	-0.0618501 21.4496 	1.90325 	-0.0478128 21.0722 	1.47807 	-0.012015 21.3666 	2.21287 	-0.0522678 21.4537 	2.43985 	-0.0652572 21.4377 	2.41315 	-0.0645429 21.2964 	2.22533 	-0.0619 20.8517 	1.64782 	-0.0545928 21.0926 	2.23932 	-0.0870016 21.1206 	2.31426 	-0.0916064 21.1017 	2.27523 	-0.0900615 21.0345 	2.12274 	-0.08882 20.4119 	0.666419 	-0.0907737 20.7811 	1.89054 	-0.101572 20.7401 	1.80618 	-0.0984896 20.6718 	1.6719 	-0.0943507 20.6065 	1.54374 	-0.090392 20.2986 	0.971998 	-0.0767759 20.4009 	1.21912 	-0.0802121 20.359 	1.12672 	-0.077194 20.3192 	1.03875 	-0.0743082 20.2814 	0.955011 	-0.0715492 20.1941 	0.77096 	-0.0666018 20.1959 	0.803851 	-0.0642831 20.1675 	0.753678 	-0.0613393 20.1579 	0.728986 	-0.0604951 20.1484 	0.704808 	-0.0596662 20.1384 	0.679101 	-0.0587824 20.1429 	0.715604 	-0.0571099 20.1476 	0.753795 	-0.0554088 20.1526 	0.793746 	-0.0536774 20.1579 	0.835533 	-0.0519138 20.1329 	0.652397 	-0.0564709 20.1226 	0.865376 	-0.0416215 20.1291 	0.932882 	-0.0389872 20.1361 	1.00549 	-0.0362564 20.1438 	1.08357 	-0.0334206 20.0912 	0.571478 	-0.0472195 20.1056 	1.11878 	-0.0259066 20.112 	1.19788 	-0.0236727 20.1166 	1.25336 	-0.0220248 20.1158 	1.24545 	-0.0218858 19.9833 	0.597111 	0.000178766 20.0573 	1.12546 	-0.0188957 20.057 	1.11927 	-0.0187918 20.0566 	1.11312 	-0.0186885 20.0563 	1.107 	-0.0185858 19.9642 	0.530074 	0.000469945 20.0171 	0.9901 	-0.0212554 20.017 	0.983832 	-0.0211209 20.0169 	0.977604 	-0.0209871 20.0168 	0.971415 	-0.0208543 19.9986 	0.385318 	-0.027928 19.9223 	0.738429 	-0.00149716 19.9223 	0.737739 	-0.00149576 19.9224 	0.73705 	-0.00149436 19.9225 	0.736362 	-0.00149297 19.8476 	0.330037 	0.0325109 19.9365 	0.45858 	-0.00566507 19.9367 	0.456983 	-0.00564534 19.9369 	0.455391 	-0.00562567 19.9372 	0.453805 	-0.00560608 19.9833 	0.145547 	-0.0119025 19.9701 	0.299619 	-0.00829729 19.9703 	0.298056 	-0.00825399 19.9704 	0.2965 	-0.00821092 19.9706 	0.294953 	-0.00816808 19.9296 	0.119797 	0.0145809 20.0038 	0.225759 	-0.00939453 20.0037 	0.22441 	-0.0093384 20.0037 	0.223069 	-0.00928259 20.0037 	0.221736 	-0.00922712 20.0088 	0.0851282 	-0.0115039 20.0373 	0.181578 	-0.00974036 20.0371 	0.180419 	-0.00967817 20.0368 	0.179267 	-0.00961638 20.0366 	0.178122 	-0.00955498 20.0227 	0.071487 	-0.0111771 20.068 	0.154242 	-0.00938842 20.0676 	0.153264 	-0.00932887 20.0671 	0.152291 	-0.00926969 20.0667 	0.151325 	-0.0092109 20.0356 	0.0624122 	-0.0103695 20.0935 	0.135577 	-0.0087696 20.0929 	0.13475 	-0.00871609 20.0923 	0.133928 	-0.00866291 20.0918 	0.133111 	-0.00861005 20.0471 	0.0559474 	-0.00921932 20.1169 	0.121301 	-0.00791152 20.1162 	0.120615 	-0.00786676 20.1156 	0.119932 	-0.00782224 20.1149 	0.119254 	-0.00777798 20.0565 	0.0510062 	-0.00774668 20.1323 	0.109427 	-0.00658729 20.1317 	0.108899 	-0.00655546 20.131 	0.108372 	-0.00652377 20.1304 	0.107848 	-0.00649224 20.0359 	0.0540614 	0.00483456 20.1429 	0.100427 	-0.00524161 20.1424 	0.100036 	-0.00522116 20.1418 	0.0996454 	-0.0052008 20.1413 	0.0992567 	-0.00518051 20.0685 	0.0444997 	-0.00436458 20.1482 	0.0922681 	-0.00352296 20.1479 	0.0920218 	-0.00351356 20.1475 	0.0917761 	-0.00350418 20.1471 	0.0915311 	-0.00349482 20.0477 	0.04663 	0.00537208 20.1509 	0.0859324 	-0.00236053 20.1506 	0.0857778 	-0.00235629 20.1503 	0.0856236 	-0.00235205 20.15 	0.0854696 	-0.00234782 20.0726 	0.040648 	-0.00134014 20.1494 	0.0798456 	-0.00147465 20.1492 	0.0797552 	-0.00147299 20.1491 	0.079665 	-0.00147132 20.1489 	0.0795748 	-0.00146965 20.0507 	0.0409865 	0.00600065 20.1462 	0.0747161 	-0.000776589 20.1461 	0.0746716 	-0.000776126 20.146 	0.0746271 	-0.000775664 20.1459 	0.0745826 	-0.000775202 20.0705 	0.0378499 	0.000717578 20.1401 	0.0696868 	-0.000204213 20.1401 	0.0696759 	-0.000204181 20.1401 	0.0696649 	-0.000204149 20.1401 	0.069654 	-0.000204116 20.0677 	0.0364234 	0.00150124 20.1324 	0.0649639 	0.000232352 20.1325 	0.0649756 	0.000232394 20.1325 	0.0649872 	0.000232435 20.1325 	0.0649989 	0.000232477 20.0642 	0.0349344 	0.00211176 20.1235 	0.0603044 	0.000457268 20.1235 	0.0603257 	0.000457429 20.1236 	0.060347 	0.000457591 20.1236 	0.0603682 	0.000457752 20.0601 	0.0332149 	0.00253853 20.1139 	0.0553246 	0.000504751 20.114 	0.0553461 	0.000504947 20.114 	0.0553676 	0.000505144 20.114 	0.0553891 	0.00050534 20.0557 	0.0312735 	0.00288899 20.104 	0.0503615 	0.000601792 20.1041 	0.0503847 	0.000602069 20.1041 	0.050408 	0.000602347 20.1042 	0.0504312 	0.000602625 20.0322 	0.0275542 	0.00567483 20.0934 	0.0454751 	0.000750415 20.0934 	0.0455011 	0.000750844 20.0935 	0.0455272 	0.000751274 20.0935 	0.0455532 	0.000751703 20.0457 	0.027091 	0.00368181 20.0809 	0.0404842 	0.00090735 20.081 	0.040512 	0.000907975 20.081 	0.0405399 	0.0009086 20.0811 	0.0405678 	0.000909225 20.0393 	0.024654 	0.00407909 20.0663 	0.0349512 	0.00101359 20.0664 	0.0349779 	0.00101436 20.0664 	0.0350047 	0.00101514 20.0665 	0.0350315 	0.00101592 20.0317 	0.0218573 	0.00440759 20.0497 	0.0295233 	0.00110228 20.0498 	0.0295478 	0.00110319 20.0498 	0.0295723 	0.00110411 20.0499 	0.0295968 	0.00110502 20.0227 	0.0184547 	0.00474874 20.0302 	0.0224863 	0.00136738 20.0303 	0.0225093 	0.00136878 20.0303 	0.0225323 	0.00137018 20.0303 	0.0225554 	0.00137158 20.0115 	0.0141786 	0.00527416 20.0031 	0.0141648 	0.00186144 20.0031 	0.0141844 	0.00186403 20.0031 	0.0142041 	0.00186661 20.0031 	0.0142238 	0.0018692 19.9746 	0.0137921 	0.00577438 19.9681 	0.00326101 	0.00237531 19.9681 	0.00326674 	0.00237948 19.968 	0.00327248 	0.00238366 19.968 	0.00327823 	0.00238785 19.9783 	0.000808497 	0.0067114 19.9227 	-0.0113355 	0.00274402 19.9226 	-0.0113583 	0.00274954 19.9224 	-0.0113812 	0.00275507 19.9223 	-0.011404 	0.00276061 19.9258 	0.00422069 	0.00616956 19.8665 	-0.0323047 	0.00289414 19.8662 	-0.0323725 	0.00290021 19.8659 	-0.0324403 	0.00290629 19.8656 	-0.0325083 	0.00291238 19.9249 	-0.0257734 	0.00708907 19.7899 	-0.061766 	0.00241361 19.7896 	-0.0618726 	0.00241777 19.7892 	-0.0619794 	0.00242195 19.7888 	-0.0620864 	0.00242613 19.8891 	-0.0484985 	0.00520629 19.6992 	-0.107026 	-1.02785e-05 19.6992 	-0.107025 	-1.02784e-05 19.6992 	-0.107025 	-1.02784e-05 19.6992 	-0.107024 	-1.02783e-05 19.8507 	-0.0817917 	-0.000115952 19.6 	-0.171959 	-0.00716025 19.602 	-0.171081 	-0.0071237 19.604 	-0.170208 	-0.00708735 19.606 	-0.16934 	-0.00705118 19.8126 	-0.132192 	-0.0100016 19.4928 	-0.297526 	-0.0194154 19.5001 	-0.293252 	-0.0191365 19.5073 	-0.289041 	-0.0188617 19.5144 	-0.284892 	-0.0185909 19.7749 	-0.218158 	-0.023775 19.3807 	-0.492742 	-0.0351225 19.3983 	-0.478746 	-0.0341249 19.4154 	-0.46516 	-0.0331565 19.4319 	-0.451971 	-0.0322164 19.6683 	-0.336782 	-0.0552098 19.4664 	-0.744819 	-0.0334247 19.4747 	-0.73326 	-0.0329059 19.4829 	-0.721885 	-0.0323955 19.4909 	-0.710691 	-0.0318931 19.7147 	-0.35717 	-0.0528697 19.5741 	-0.828388 	-0.0270835 19.5799 	-0.816984 	-0.0267106 19.5857 	-0.80574 	-0.026343 19.5914 	-0.794654 	-0.0259806 19.8361 	-0.446853 	-0.033111 19.6582 	-0.968654 	-0.0268311 19.6632 	-0.954245 	-0.026432 19.6683 	-0.940053 	-0.0260389 19.6732 	-0.926076 	-0.0256517 19.8913 	-0.515096 	-0.0326049 19.7631 	-1.26871 	-0.0216429 19.7662 	-1.25195 	-0.0213569 19.7693 	-1.23541 	-0.0210747 19.7723 	-1.21908 	-0.0207963 19.7887 	-0.81953 	-0.0598321 19.9211 	-2.07531 	0.0078213 19.9211 	-2.06597 	0.00730908 19.9318 	-1.56429 	-0.00662218 19.9413 	-1.13013 	-0.0182523 20.1138 	-1.3174 	-0.0341957 20.1352 	-1.42649 	-0.0306096 20.1295 	-1.39686 	-0.031493 20.124 	-1.36741 	-0.0323682 20.1184 	-1.33815 	-0.0332353 20.1133 	-1.31115 	-0.0340334 20.2194 	-1.43393 	-0.0191699 20.3302 	-1.57454 	-0.0041874 20.446 	-1.73359 	0.0109775 20.5222 	-1.84839 	0.0205129 20.2467 	-0.845227 	-0.000993007 21.0898 	-2.85668 	-0.0080597 21.0843 	-2.84226 	-0.00801903 21.0788 	-2.82791 	-0.00797855 21.0734 	-2.81363 	-0.00793826 20.4375 	-0.972469 	0.0122925 22.1247 	-3.34788 	0.0085831 22.1342 	-3.36291 	0.00862164 22.1438 	-3.378 	0.00866032 22.0921 	-3.29479 	0.0106138 20.7975 	-1.21761 	0.0514467 23.0433 	-3.71475 	0.105393 24.4999 	-5.34359 	0.141279 24.4867 	-5.34671 	0.142697 22.6447 	-3.32283 	0.10082 20.9655 	-1.47412 	0.0622849 20.8063 	-1.2351 	0.0574589 20.6472 	-0.996109 	0.0526216 20.4881 	-0.757181 	0.0477736 20.3291 	-0.518345 	0.0429152 19.4601 	0 	0 19.1619 	-0.408553 	0.0869559 19.405 	-0.426641 	0.0908059 19.6492 	-0.445294 	0.0947758 19.8945 	-0.464519 	0.0988678 18.9648 	0 	0 20.1181 	-0.340747 	0.150187 20.2047 	-0.352784 	0.155492 20.2104 	-0.329445 	0.145205 19.8111 	-0.128566 	0.0566666 19.5604 	0 	0 19.8424 	-0.0593043 	0.0186832 20.1281 	-0.11969 	0.0377072 20.2387 	-0.161701 	0.0443216 20.2788 	-0.196468 	0.045925 20.1871 	-0.109791 	0.0208752 20.2889 	-0.0962745 	0.0602771 20.3174 	-0.104726 	0.0625834 20.3461 	-0.113258 	0.0649365 20.3751 	-0.12187 	0.0673371 20.0627 	-0.101596 	0.0400512 20.3771 	-0.0820396 	0.0762815 20.3731 	-0.0785971 	0.077763 20.3691 	-0.0751027 	0.0792745 20.365 	-0.0715558 	0.0808166 20.2401 	-0.00265837 	0.0248567 20.2375 	0.0937238 	0.0780618 20.2023 	0.0834798 	0.0811057 20.1673 	0.0733207 	0.0842188 19.7965 	0.036743 	0.0437497 19.4145 	0 	0 19.4317 	-0.00315196 	0.0098489 19.4488 	-0.00630311 	0.0196953 19.4659 	-0.00945346 	0.0295392 19.4828 	-0.012603 	0.0393805 19.3299 	0 	0 20.0236 	0.161588 	0.323745 19.8285 	0.17609 	0.3528 19.6349 	0.192049 	0.384774 19.4428 	0.209625 	0.419988 18.7085 	0 	0 19.946 	0.520849 	0.254345 19.9606 	0.860353 	0.274828 19.9751 	1.20064 	0.295777 19.9894 	1.54162 	0.317194 20.0123 	2.09084 	0.352387 19.9701 	2.70407 	0.450539 19.9412 	3.15786 	0.523438 19.9687 	2.88131 	0.480133 19.9948 	2.61588 	0.438537 20.0143 	2.41603 	0.407194 20.0139 	2.41191 	0.407328 20.0136 	2.4078 	0.407463 20.0133 	2.40368 	0.407597 20.013 	2.39957 	0.407732 20.0002 	2.3912 	0.403008 20.0044 	2.39143 	0.388946 19.9958 	2.38503 	0.372271 19.9873 	2.37855 	0.355549 19.9788 	2.372 	0.338779 19.9768 	2.37046 	0.334867 19.9136 	2.36645 	0.278828 19.8418 	2.36625 	0.222805 19.7616 	2.36979 	0.166788 19.6728 	2.377 	0.110766 19.8546 	2.12456 	0.0835579 19.8573 	2.01922 	0.0891245 19.86 	1.91536 	0.0946805 19.8626 	1.81296 	0.100227 19.8652 	1.71201 	0.105763 19.5132 	1.51624 	0.0596328 19.7513 	1.79212 	0.097736 19.6062 	2.01186 	0.129409 19.4614 	2.22926 	0.161024 19.3168 	2.44428 	0.192577 19.0917 	2.7759 	0.241687 18.7567 	3.26264 	0.275319 18.4228 	3.73562 	0.31265 18.0957 	4.18469 	0.353831 18.0337 	4.13798 	0.398334 17.9635 	3.91059 	0.480097 18.0231 	4.01004 	0.437452 17.9905 	4.04843 	0.448407 17.9411 	4.07835 	0.468741 17.8903 	4.11031 	0.489445 17.8834 	4.08471 	0.495915 17.8905 	4.18088 	0.431438 17.9005 	4.26649 	0.366277 17.9139 	4.34076 	0.300412 18.0828 	4.14664 	0.230515 18.9046 	2.84375 	0.14518 18.3628 	3.96524 	0.143473 17.8419 	5.04376 	0.141931 17.7243 	5.30441 	0.116092 17.7272 	3.96104 	0.208489 17.9062 	2.51656 	0.270792 17.8981 	3.79653 	0.163058 17.9041 	4.84001 	0.0723181 17.9648 	4.48 	0.0864626 18.1715 	3.93057 	0.0783595 18.3894 	2.56516 	0.136334 18.3177 	3.63511 	0.0391083 18.4518 	3.39229 	0.00521779 18.5079 	3.15744 	0.00710415 18.5397 	2.93845 	0.0182226 18.5857 	2.6166 	0.0346783 18.5775 	2.70698 	0.0279883 18.5791 	2.68467 	0.0297319 18.5806 	2.66259 	0.031462 18.5821 	2.64074 	0.0331789 18.5834 	2.62099 	0.0347364 18.475 	2.77177 	0.0403508 18.3595 	2.93262 	0.0463233 18.2806 	3.106 	0.0374162 18.2331 	3.2892 	0.0158262 18.3894 	2.60129 	0.0124403 18.193 	3.70803 	-0.0501812 18.0598 	3.94561 	-0.0531603 17.9148 	4.19289 	-0.0590895 18.063 	3.85262 	-0.0725293 18.7614 	2.51869 	-0.0744434 18.7527 	3.42204 	-0.113512 18.5112 	3.64442 	-0.0887296 18.4362 	3.3616 	-0.0823556 18.355 	3.09077 	-0.0772008 18.2591 	1.54804 	-0.0803622 18.5374 	2.17679 	-0.0650926 18.6376 	1.76823 	-0.0540986 18.6115 	1.64327 	-0.0459046 18.5858 	1.52776 	-0.0382778 18.4303 	1.06846 	-0.00604733 18.5668 	1.2605 	-0.0269712 18.5354 	1.19868 	-0.0208315 18.5041 	1.1407 	-0.0149831 18.4968 	1.04668 	-0.0087509 18.5679 	0.862596 	-0.00280007 18.5764 	0.849195 	-0.00228927 18.5849 	0.835744 	-0.00178207 18.5934 	0.822243 	-0.00127849 18.6019 	0.808692 	-0.000778525 18.6192 	0.777978 	-0.00139936 18.6187 	0.709984 	0.000994656 18.6089 	0.755847 	0.00318889 18.598 	0.804877 	0.00552111 18.5859 	0.857296 	0.00800102 18.6463 	0.609917 	0.0258041 18.5739 	0.873752 	0.0160966 18.5656 	0.931553 	0.0182946 18.5566 	0.993248 	0.0206368 18.5466 	1.0591 	0.0231331 18.6593 	0.559576 	0.0462712 18.5304 	1.12283 	0.0321514 18.5311 	1.19802 	0.0334771 18.532 	1.27805 	0.0348863 18.5333 	1.36323 	0.0363843 18.4076 	0.541854 	0.0228889 18.474 	0.961852 	0.0316394 18.4565 	0.97294 	0.0320041 18.4386 	0.984166 	0.0323734 18.4206 	0.995532 	0.0327473 18.7851 	0.206408 	0.0904857 18.3344 	0.732265 	0.0358411 18.3141 	0.741181 	0.0362775 18.2935 	0.750216 	0.0367197 18.2727 	0.75937 	0.0371677 18.3754 	0.160115 	0.0212527 18.1952 	0.632401 	0.0300983 18.1776 	0.638563 	0.0303916 18.1598 	0.644791 	0.030688 18.1418 	0.651086 	0.0309876 18.6704 	0.185479 	0.0605317 17.9817 	0.589715 	0.0302406 17.9628 	0.59523 	0.0305234 17.9437 	0.600802 	0.0308091 17.9245 	0.606432 	0.0310978 18.5596 	0.192041 	0.049451 17.6923 	0.562021 	0.0352356 17.668 	0.567929 	0.0356061 17.6435 	0.573908 	0.0359809 17.6186 	0.579958 	0.0363602 18.419 	0.201801 	0.0442162 17.3334 	0.541721 	0.0409714 17.3019 	0.548121 	0.0414554 17.27 	0.554609 	0.0419461 17.2376 	0.561185 	0.0424435 17.8328 	0.109148 	-0.0240752 16.9633 	0.517397 	0.0450885 16.9245 	0.523994 	0.0456633 16.8852 	0.53069 	0.0462469 16.8453 	0.537487 	0.0468392 18.1007 	0.217173 	0.0362025 16.4854 	0.505763 	0.048243 16.4389 	0.512447 	0.0488806 16.3917 	0.519239 	0.0495285 16.3438 	0.52614 	0.0501868 17.9026 	0.224442 	0.0301162 15.9455 	0.487317 	0.0476969 15.9205 	0.489675 	0.0479024 15.9661 	0.481776 	0.0470359 16.011 	0.474021 	0.0461854 17.3543 	0.105786 	-0.0316626 15.812 	0.407381 	0.0337848 15.8609 	0.40182 	0.0328631 15.9093 	0.396327 	0.0319558 15.9572 	0.3909 	0.0310627 17.2982 	0.109718 	-0.0328344 15.824 	0.325412 	0.0119718 15.8774 	0.321471 	0.0113342 15.9303 	0.317566 	0.010707 15.9826 	0.313697 	0.0100902 17.5041 	0.200218 	-0.00552976 15.9405 	0.261861 	-0.00779748 15.9983 	0.259383 	-0.00770991 16.0553 	0.256937 	-0.0076235 16.1116 	0.254524 	-0.00753823 17.4697 	0.177296 	-0.018707 16.1097 	0.20238 	-0.0295857 16.17 	0.200299 	-0.0291146 16.2294 	0.198254 	-0.0286508 16.2878 	0.196245 	-0.0281942 17.5068 	0.148802 	-0.0307674 16.3347 	0.15231 	-0.0453674 16.3945 	0.150494 	-0.0446261 16.4533 	0.148714 	-0.0438978