# vtk DataFile Version 2.0
track0
ASCII
DATASET POLYDATA
POINTS 15780 float
-1.001 -0.05 0.0011
-1.0008 -0.05 0.0011
-1.0006 -0.05 0.0011
-1.0004 -0.05 0.0011
-1.0002 -0.05 0.0011
-1 -0.05 0.0011
-0.9875 -0.05 0.0011
-0.975 -0.05 0.0011
-0.9625 -0.05 0.0011
-0.95 -0.05 0.0011
-0.9375 -0.05 0.00109999
-0.925 -0.05 0.00109999
-0.9125 -0.05 0.00109999
-0.9 -0.05 0.00109999
-0.8875 -0.05 0.00109999
-0.875 -0.05 0.00109999
-0.8625 -0.05 0.00109999
-0.85 -0.05 0.00109999
-0.8375 -0.05 0.00109998
-0.825 -0.0500001 0.00109998
-0.8125 -0.0500001 0.00109998
-0.8 -0.0500001 0.00109998
-0.7875 -0.0500001 0.00109998
-0.775 -0.0500001 0.00109998
-0.7625 -0.0500001 0.00109998
-0.75 -0.0500001 0.00109998
-0.7375 -0.0500001 0.00109997
-0.725 -0.0500001 0.00109997
-0.7125 -0.0500001 0.00109997
-0.7 -0.0500001 0.00109997
-0.6875 -0.0500001 0.00109997
-0.675 -0.0500001 0.00109997
-0.6625 -0.0500001 0.00109997
-0.65 -0.0500001 0.00109996
-0.6375 -0.0500001 0.00109996
-0.625 -0.0500001 0.00109996
-0.6125 -0.0500001 0.00109996
-0.6 -0.0500001 0.00109996
-0.5875 -0.0500001 0.00109996
-0.575 -0.0500001 0.00109996
-0.5625 -0.0500001 0.00109996
-0.55 -0.0500001 0.00109995
-0.5375 -0.0500001 0.00109995
-0.525 -0.0500001 0.00109995
-0.5125 -0.0500001 0.00109995
-0.5 -0.0500001 0.00109995
-0.4875 -0.0500001 0.00109995
-0.475 -0.0500001 0.00109995
-0.4625 -0.0500001 0.00109994
-0.45 -0.0500002 0.00109994
-0.4375 -0.0500002 0.00109994
-0.425 -0.0500002 0.00109994
-0.4125 -0.0500002 0.00109994
-0.4 -0.0500002 0.00109994
-0.3875 -0.0500002 0.00109994
-0.375 -0.0500002 0.00109994
-0.3625 -0.0500002 0.00109993
-0.35 -0.0500002 0.00109993
-0.3375 -0.0500002 0.00109993
-0.325 -0.0500002 0.00109993
-0.3125 -0.0500002 0.00109993
-0.3 -0.0500002 0.00109993
-0.2875 -0.0500002 0.00109993
-0.275 -0.0500002 0.00109993
-0.2625 -0.0500002 0.00109992
-0.25 -0.0500002 0.00109992
-0.2375 -0.0500002 0.00109992
-0.225 -0.0500002 0.00109992
-0.2125 -0.0500002 0.00109992
-0.2 -0.0500002 0.00109992
-0.1875 -0.0500002 0.00109992
-0.175 -0.0500002 0.00109992
-0.1625 -0.0500002 0.00109991
-0.15 -0.0500002 0.00109991
-0.1375 -0.0500002 0.00109991
-0.125 -0.0500002 0.00109991
-0.1125 -0.0500002 0.00109991
-0.1 -0.0500002 0.00109991
-0.0875 -0.0500002 0.00109991
-0.075 -0.0500002 0.00109991
-0.0625 -0.0500002 0.00109991
-0.05 -0.0500003 0.00109991
-0.0375 -0.0500003 0.0010999
-0.025 -0.0500003 0.0010999
-0.0125 -0.0500003 0.0010999
2.10607e-13 -0.0500003 0.0010999
0.0125 -0.0500003 0.0010999
0.025 -0.0500003 0.0010999
0.0375 -0.0500003 0.0010999
0.05 -0.0500003 0.0010999
0.0625 -0.0500003 0.0010999
0.075 -0.0500003 0.0010999
0.0875 -0.0500003 0.0010999
0.1 -0.0500003 0.00109989
0.1125 -0.0500003 0.00109989
0.125 -0.0500003 0.00109989
0.1375 -0.0500003 0.00109989
0.15 -0.0500003 0.00109989
0.1625 -0.0500003 0.00109989
0.175 -0.0500003 0.00109989
0.1875 -0.0500003 0.00109989
0.2 -0.0500003 0.00109989
0.2125 -0.0500003 0.00109989
0.225 -0.0500003 0.00109989
0.2375 -0.0500003 0.00109989
0.25 -0.0500003 0.00109989
0.2625 -0.0500003 0.00109988
0.275 -0.0500003 0.00109988
0.2875 -0.0500003 0.00109988
0.3 -0.0500003 0.00109988
0.3125 -0.0500003 0.00109988
0.325 -0.0500003 0.00109988
0.3375 -0.0500003 0.00109988
0.35 -0.0500003 0.00109988
0.3625 -0.0500003 0.00109988
0.375 -0.0500003 0.00109988
0.3875 -0.0500003 0.00109988
0.4 -0.0500004 0.00109988
0.4125 -0.0500004 0.00109988
0.425 -0.0500004 0.00109988
0.4375 -0.0500004 0.00109988
0.45 -0.0500004 0.00109988
0.4625 -0.0500004 0.00109988
0.475 -0.0500004 0.00109988
0.4875 -0.0500004 0.00109988
0.5 -0.0500004 0.00109988
0.5125 -0.0500004 0.00109988
0.525 -0.0500004 0.00109988
0.5375 -0.0500004 0.00109988
0.55 -0.0500004 0.00109988
0.5625 -0.0500004 0.00109988
0.575 -0.0500004 0.00109987
0.5875 -0.0500004 0.00109987
0.6 -0.0500004 0.00109987
0.6125 -0.0500004 0.00109987
0.625 -0.0500004 0.00109987
0.6375 -0.0500004 0.00109987
0.65 -0.0500004 0.00109987
0.6625 -0.0500004 0.00109987
0.675 -0.0500004 0.00109987
0.6875 -0.0500004 0.00109987
0.7 -0.0500004 0.00109987
0.7125 -0.0500004 0.00109987
0.725 -0.0500004 0.00109987
0.7375 -0.0500004 0.00109987
0.75 -0.0500004 0.00109987
0.7625 -0.0500004 0.00109987
0.775 -0.0500004 0.00109987
0.7875 -0.0500004 0.00109987
0.8 -0.0500004 0.00109987
0.8125 -0.0500004 0.00109987
0.825 -0.0500004 0.00109987
0.8375 -0.0500004 0.00109987
0.85 -0.0500004 0.00109987
0.8625 -0.0500004 0.00109987
0.875 -0.0500004 0.00109987
0.8875 -0.0500004 0.00109987
0.9 -0.0500004 0.00109987
0.9125 -0.0500005 0.00109988
0.925 -0.0500005 0.00109988
0.9375 -0.0500005 0.00109988
0.95 -0.0500005 0.00109988
0.9625 -0.0500005 0.00109988
0.975 -0.0500005 0.00109988
0.9875 -0.0500005 0.00109988
1 -0.0500005 0.00109988
1.0125 -0.0500005 0.00109988
1.025 -0.0500005 0.00109988
1.0375 -0.0500005 0.00109988
1.05 -0.0500005 0.00109988
1.0625 -0.0500005 0.00109988
1.075 -0.0500005 0.00109988
1.0875 -0.0500005 0.00109988
1.1 -0.0500005 0.00109988
1.1125 -0.0500005 0.00109988
1.125 -0.0500005 0.00109988
1.1375 -0.0500005 0.00109988
1.15 -0.0500005 0.00109988
1.1625 -0.0500005 0.00109988
1.175 -0.0500005 0.00109988
1.1875 -0.0500005 0.00109988
1.2 -0.0500005 0.00109988
1.2125 -0.0500005 0.00109988
1.225 -0.0500005 0.00109988
1.2375 -0.0500005 0.00109989
1.25 -0.0500005 0.00109989
1.2625 -0.0500005 0.00109989
1.275 -0.0500005 0.00109989
1.2875 -0.0500005 0.00109989
1.3 -0.0500005 0.00109989
1.3125 -0.0500005 0.00109989
1.325 -0.0500005 0.00109989
1.3375 -0.0500005 0.00109989
1.35 -0.0500005 0.00109989
1.3625 -0.0500005 0.00109989
1.375 -0.0500005 0.00109989
1.3875 -0.0500005 0.00109989
1.4 -0.0500005 0.00109989
1.4125 -0.0500005 0.00109989
1.425 -0.0500005 0.00109989
1.4375 -0.0500005 0.0010999
1.45 -0.0500005 0.0010999
1.4625 -0.0500005 0.0010999
1.475 -0.0500005 0.0010999
1.4875 -0.0500005 0.0010999
1.5 -0.0500006 0.0010999
1.5125 -0.0500006 0.0010999
1.525 -0.0500006 0.0010999
1.5375 -0.0500006 0.0010999
1.55 -0.0500006 0.0010999
1.5625 -0.0500006 0.0010999
1.575 -0.0500006 0.0010999
1.5875 -0.0500006 0.0010999
1.6 -0.0500006 0.0010999
1.6125 -0.0500006 0.00109991
1.625 -0.0500006 0.00109991
1.6375 -0.0500006 0.00109991
1.65 -0.0500006 0.00109991
1.6625 -0.0500006 0.00109991
1.675 -0.0500006 0.00109991
1.6875 -0.0500006 0.00109991
1.7 -0.0500006 0.00109991
1.7125 -0.0500006 0.00109991
1.725 -0.0500006 0.00109991
1.7375 -0.0500006 0.00109991
1.75 -0.0500006 0.00109991
1.7625 -0.0500006 0.00109992
1.775 -0.0500006 0.00109992
1.7875 -0.0500006 0.00109992
1.8 -0.0500006 0.00109992
1.8125 -0.0500006 0.00109992
1.825 -0.0500006 0.00109992
1.8375 -0.0500006 0.00109992
1.85 -0.0500006 0.00109992
1.8625 -0.0500006 0.00109992
1.875 -0.0500006 0.00109992
1.8875 -0.0500006 0.00109992
1.9 -0.0500006 0.00109992
1.9125 -0.0500006 0.00109993
1.925 -0.0500006 0.00109993
1.9375 -0.0500006 0.00109993
1.95 -0.0500006 0.00109993
1.9625 -0.0500006 0.00109993
1.975 -0.0500006 0.00109993
1.9875 -0.0500006 0.00109993
2 -0.0500006 0.00109993
2.0125 -0.0500006 0.00109993
2.025 -0.0500006 0.00109993
2.0375 -0.0500006 0.00109993
2.05 -0.0500006 0.00109993
2.0625 -0.0500006 0.00109994
2.075 -0.0500006 0.00109994
2.0875 -0.0500006 0.00109994
2.1 -0.0500006 0.00109994
2.1125 -0.0500006 0.00109994
2.125 -0.0500006 0.00109994
2.1375 -0.0500006 0.00109994
2.15 -0.0500006 0.00109994
2.1625 -0.0500006 0.00109994
2.175 -0.0500007 0.00109994
2.1875 -0.0500007 0.00109994
2.2 -0.0500007 0.00109994
2.2125 -0.0500007 0.00109994
2.225 -0.0500007 0.00109995
2.2375 -0.0500007 0.00109995
2.25 -0.0500007 0.00109995
2.2625 -0.0500007 0.00109995
2.275 -0.0500007 0.00109995
2.2875 -0.0500007 0.00109995
2.3 -0.0500007 0.00109995
2.3125 -0.0500007 0.00109995
2.325 -0.0500007 0.00109995
2.3375 -0.0500007 0.00109995
2.35 -0.0500007 0.00109995
2.3625 -0.0500007 0.00109995
2.375 -0.0500007 0.00109995
2.3875 -0.0500007 0.00109996
2.4 -0.0500007 0.00109996
2.4125 -0.0500007 0.00109996
2.425 -0.0500007 0.00109996
2.4375 -0.0500007 0.00109996
2.45 -0.0500007 0.00109996
2.4625 -0.0500007 0.00109996
2.475 -0.0500007 0.00109996
2.4875 -0.0500007 0.00109996
2.5 -0.0500007 0.00109996
2.5125 -0.0500007 0.00109996
2.525 -0.0500007 0.00109996
2.5375 -0.0500007 0.00109996
2.55 -0.0500007 0.00109996
2.5625 -0.0500007 0.00109997
2.575 -0.0500007 0.00109997
2.5875 -0.0500007 0.00109997
2.6 -0.0500007 0.00109997
2.6125 -0.0500007 0.00109997
2.625 -0.0500007 0.00109997
2.6375 -0.0500007 0.00109997
2.65 -0.0500007 0.00109997
2.6625 -0.0500007 0.00109997
2.675 -0.0500007 0.00109997
2.6875 -0.0500007 0.00109997
2.7 -0.0500007 0.00109997
2.7125 -0.0500007 0.00109997
2.725 -0.0500007 0.00109997
2.7375 -0.0500007 0.00109997
2.75 -0.0500007 0.00109997
2.7625 -0.0500007 0.00109998
2.775 -0.0500007 0.00109998
2.7875 -0.0500007 0.00109998
2.8 -0.0500007 0.00109998
2.8125 -0.0500007 0.00109998
2.825 -0.0500007 0.00109998
2.8375 -0.0500007 0.00109998
2.85 -0.0500007 0.00109998
2.8625 -0.0500008 0.00109998
2.875 -0.0500008 0.00109998
2.8875 -0.0500008 0.00109998
2.9 -0.0500008 0.00109998
2.9125 -0.0500008 0.00109998
2.925 -0.0500008 0.00109998
2.9375 -0.0500008 0.00109998
2.95 -0.0500008 0.00109998
2.9625 -0.0500008 0.00109998
2.975 -0.0500008 0.00109998
2.9875 -0.0500008 0.00109998
3 -0.0500008 0.00109998
3.0125 -0.0500008 0.00109999
3.025 -0.0500008 0.00109999
3.0375 -0.0500008 0.00109999
3.05 -0.0500008 0.00109999
3.0625 -0.0500008 0.00109999
3.075 -0.0500008 0.00109999
3.0875 -0.0500008 0.00109999
3.1 -0.0500008 0.00109999
3.1125 -0.0500008 0.00109999
3.125 -0.0500008 0.00109999
3.1375 -0.0500008 0.00109999
3.15 -0.0500008 0.00109999
3.1625 -0.0500008 0.00109999
3.175 -0.0500008 0.00109999
3.1875 -0.0500008 0.00109999
3.2 -0.0500008 0.00109999
3.2125 -0.0500008 0.00109999
3.225 -0.0500008 0.00109999
3.2375 -0.0500008 0.00109999
3.25 -0.0500008 0.00109999
3.2625 -0.0500008 0.00109999
3.275 -0.0500008 0.00109999
3.2875 -0.0500008 0.00109999
3.3 -0.0500008 0.00109999
3.3125 -0.0500008 0.00109999
3.325 -0.0500008 0.00109999
3.3375 -0.0500008 0.00109999
3.35 -0.0500008 0.0011
3.3625 -0.0500008 0.0011
[...]
POINT_DATA 15780
 FIELD attributes 1
U 3 15780 float
30.0002 	-7.01776e-06 	-6.30587e-06 30.0002 	-6.84327e-06 	-6.51454e-06 30.0002 	-6.66879e-06 	-6.72321e-06 30.0002 	-6.4943e-06 	-6.93187e-06 30.0002 	-6.31982e-06 	-7.14054e-06 30.0002 	-6.14533e-06 	-7.34921e-06 30.0004 	-1.23849e-05 	-1.26099e-06 30.0004 	-1.23849e-05 	-1.26099e-06 30.0004 	-1.23849e-05 	-1.26099e-06 30.0004 	-1.23849e-05 	-1.26099e-06 30.0002 	-7.03679e-08 	-6.84366e-06 30.0005 	-1.07088e-05 	-1.68703e-06 30.0005 	-1.07088e-05 	-1.68703e-06 30.0005 	-1.07088e-05 	-1.68703e-06 30.0005 	-1.07088e-05 	-1.68703e-06 30.0002 	-7.20389e-08 	-6.59607e-06 30.0005 	-9.95818e-06 	-2.08021e-06 30.0005 	-9.95818e-06 	-2.08021e-06 30.0005 	-9.95817e-06 	-2.0802e-06 30.0005 	-9.95816e-06 	-2.0802e-06 30.0003 	-4.59292e-06 	-6.24725e-06 30.0005 	-9.6914e-06 	-2.34893e-06 30.0005 	-9.6914e-06 	-2.34893e-06 30.0005 	-9.69139e-06 	-2.34893e-06 30.0005 	-9.69138e-06 	-2.34893e-06 30.0003 	-7.56153e-08 	-6.57614e-06 30.0005 	-9.52319e-06 	-2.4978e-06 30.0005 	-9.52319e-06 	-2.49779e-06 30.0005 	-9.52318e-06 	-2.49779e-06 30.0005 	-9.52317e-06 	-2.49779e-06 30.0003 	-7.73632e-08 	-6.52625e-06 30.0005 	-9.38681e-06 	-2.55604e-06 30.0005 	-9.3868e-06 	-2.55603e-06 30.0005 	-9.38679e-06 	-2.55603e-06 30.0005 	-9.38678e-06 	-2.55603e-06 30.0003 	-4.26671e-06 	-6.08528e-06 30.0005 	-9.27937e-06 	-2.55827e-06 30.0005 	-9.27936e-06 	-2.55827e-06 30.0005 	-9.27935e-06 	-2.55826e-06 30.0005 	-9.27934e-06 	-2.55826e-06 30.0003 	-4.19909e-06 	-5.97788e-06 30.0006 	-9.18714e-06 	-2.5304e-06 30.0006 	-9.18714e-06 	-2.5304e-06 30.0006 	-9.18713e-06 	-2.5304e-06 30.0006 	-9.18712e-06 	-2.53039e-06 30.0003 	-8.26333e-08 	-6.20125e-06 30.0006 	-9.09706e-06 	-2.48115e-06 30.0006 	-9.09705e-06 	-2.48115e-06 30.0006 	-9.09704e-06 	-2.48115e-06 30.0006 	-9.09703e-06 	-2.48115e-06 30.0003 	-8.43766e-08 	-6.05422e-06 30.0006 	-9.00458e-06 	-2.41358e-06 30.0006 	-9.00457e-06 	-2.41358e-06 30.0006 	-9.00457e-06 	-2.41358e-06 30.0006 	-9.00456e-06 	-2.41357e-06 30.0003 	-8.61256e-08 	-5.88781e-06 30.0006 	-8.90843e-06 	-2.3297e-06 30.0006 	-8.90842e-06 	-2.3297e-06 30.0006 	-8.90841e-06 	-2.3297e-06 30.0006 	-8.9084e-06 	-2.3297e-06 30.0003 	-3.93764e-06 	-5.36346e-06 30.0006 	-8.80837e-06 	-2.23272e-06 30.0006 	-8.80837e-06 	-2.23272e-06 30.0006 	-8.80836e-06 	-2.23272e-06 30.0006 	-8.80835e-06 	-2.23272e-06 30.0003 	-3.86385e-06 	-5.16475e-06 30.0006 	-8.70407e-06 	-2.12412e-06 30.0006 	-8.70406e-06 	-2.12412e-06 30.0006 	-8.70405e-06 	-2.12412e-06 30.0006 	-8.70405e-06 	-2.12412e-06 30.0003 	-9.13688e-08 	-5.28457e-06 30.0006 	-8.59588e-06 	-2.00507e-06 30.0006 	-8.59587e-06 	-2.00506e-06 30.0006 	-8.59586e-06 	-2.00506e-06 30.0006 	-8.59586e-06 	-2.00506e-06 30.0003 	-3.70423e-06 	-4.7194e-06 30.0007 	-8.4845e-06 	-1.87667e-06 30.0007 	-8.48449e-06 	-1.87667e-06 30.0007 	-8.48449e-06 	-1.87667e-06 30.0007 	-8.48448e-06 	-1.87667e-06 30.0003 	-3.61914e-06 	-4.47431e-06 30.0007 	-8.37115e-06 	-1.73883e-06 30.0007 	-8.37115e-06 	-1.73883e-06 30.0007 	-8.37114e-06 	-1.73883e-06 30.0007 	-8.37114e-06 	-1.73883e-06 30.0004 	-9.6606e-08 	-4.54319e-06 30.0007 	-8.25962e-06 	-1.59803e-06 30.0007 	-8.25961e-06 	-1.59803e-06 30.0007 	-8.25961e-06 	-1.59803e-06 30.0007 	-8.2596e-06 	-1.59803e-06 30.0004 	-9.83579e-08 	-4.27124e-06 30.0007 	-8.14761e-06 	-1.46323e-06 30.0007 	-8.1476e-06 	-1.46323e-06 30.0007 	-8.1476e-06 	-1.46323e-06 30.0007 	-8.14759e-06 	-1.46323e-06 30.0004 	-1.00097e-07 	-3.98928e-06 30.0007 	-8.01954e-06 	-1.32072e-06 30.0007 	-8.01953e-06 	-1.32072e-06 30.0007 	-8.01953e-06 	-1.32072e-06 30.0007 	-8.01952e-06 	-1.32072e-06 30.0004 	-3.25081e-06 	-3.37796e-06 30.0007 	-7.88074e-06 	-1.16801e-06 30.0007 	-7.88074e-06 	-1.16801e-06 30.0007 	-7.88074e-06 	-1.16801e-06 30.0007 	-7.88073e-06 	-1.16801e-06 30.0004 	-1.03534e-07 	-3.40289e-06 30.0007 	-7.74483e-06 	-1.00788e-06 30.0007 	-7.74483e-06 	-1.00788e-06 30.0007 	-7.74483e-06 	-1.00788e-06 30.0007 	-7.74482e-06 	-1.00788e-06 30.0004 	-1.05254e-07 	-3.10328e-06 30.0007 	-7.61069e-06 	-8.41869e-07 30.0007 	-7.61069e-06 	-8.41869e-07 30.0007 	-7.61068e-06 	-8.41869e-07 30.0007 	-7.61068e-06 	-8.41868e-07 30.0004 	-2.93165e-06 	-2.48789e-06 30.0007 	-7.47491e-06 	-6.70221e-07 30.0007 	-7.47491e-06 	-6.70221e-07 30.0007 	-7.47491e-06 	-6.70221e-07 30.0007 	-7.4749e-06 	-6.70221e-07 30.0004 	-2.82519e-06 	-2.18313e-06 30.0007 	-7.3428e-06 	-4.97067e-07 30.0007 	-7.3428e-06 	-4.97067e-07 30.0007 	-7.3428e-06 	-4.97067e-07 30.0007 	-7.3428e-06 	-4.97067e-07 30.0004 	-1.10351e-07 	-2.17112e-06 30.0007 	-7.21501e-06 	-3.17342e-07 30.0007 	-7.21501e-06 	-3.17342e-07 30.0007 	-7.21501e-06 	-3.17342e-07 30.0007 	-7.21501e-06 	-3.17342e-07 30.0004 	-1.12032e-07 	-1.85338e-06 30.0007 	-7.09827e-06 	-1.38236e-07 30.0007 	-7.09827e-06 	-1.38236e-07 30.0007 	-7.09827e-06 	-1.38236e-07 30.0007 	-7.09827e-06 	-1.38236e-07 30.0004 	-1.13691e-07 	-1.54904e-06 30.0007 	-6.98493e-06 	4.083e-08 30.0007 	-6.98493e-06 	4.083e-08 30.0007 	-6.98494e-06 	4.083e-08 30.0007 	-6.98494e-06 	4.083e-08 30.0004 	-2.43876e-06 	-9.58517e-07 30.0007 	-6.87133e-06 	2.14643e-07 30.0007 	-6.87133e-06 	2.14643e-07 30.0007 	-6.87133e-06 	2.14643e-07 30.0007 	-6.87133e-06 	2.14643e-07 30.0004 	-2.34716e-06 	-6.82317e-07 30.0007 	-6.75322e-06 	3.90696e-07 30.0007 	-6.75323e-06 	3.90696e-07 30.0007 	-6.75323e-06 	3.90696e-07 30.0007 	-6.75323e-06 	3.90696e-07 30.0004 	-1.18682e-07 	-7.09793e-07 30.0007 	-6.64274e-06 	5.64351e-07 30.0007 	-6.64275e-06 	5.64351e-07 30.0007 	-6.64275e-06 	5.64351e-07 30.0007 	-6.64275e-06 	5.64351e-07 30.0004 	-2.16684e-06 	-1.45458e-07 30.0007 	-6.53576e-06 	7.27375e-07 30.0007 	-6.53576e-06 	7.27375e-07 30.0007 	-6.53576e-06 	7.27375e-07 30.0007 	-6.53576e-06 	7.27376e-07 30.0004 	-2.08117e-06 	1.13819e-07 30.0007 	-6.43046e-06 	8.78813e-07 30.0007 	-6.43046e-06 	8.78814e-07 30.0007 	-6.43046e-06 	8.78814e-07 30.0007 	-6.43046e-06 	8.78814e-07 30.0004 	-1.23612e-07 	7.05574e-08 30.0007 	-6.32294e-06 	1.01777e-06 30.0007 	-6.32295e-06 	1.01777e-06 30.0007 	-6.32295e-06 	1.01777e-06 30.0007 	-6.32295e-06 	1.01777e-06 30.0004 	-1.25214e-07 	3.15791e-07 30.0007 	-6.21656e-06 	1.1406e-06 30.0007 	-6.21656e-06 	1.1406e-06 30.0007 	-6.21657e-06 	1.1406e-06 30.0007 	-6.21657e-06 	1.14061e-06 30.0004 	-1.26795e-07 	5.4551e-07 30.0007 	-6.11528e-06 	1.2563e-06 30.0007 	-6.11528e-06 	1.2563e-06 30.0007 	-6.11529e-06 	1.2563e-06 30.0007 	-6.11529e-06 	1.2563e-06 30.0004 	-1.76436e-06 	1.03207e-06 30.0007 	-6.02255e-06 	1.37125e-06 30.0007 	-6.02255e-06 	1.37125e-06 30.0007 	-6.02255e-06 	1.37125e-06 30.0007 	-6.02256e-06 	1.37125e-06 30.0004 	-1.29887e-07 	9.36928e-07 30.0007 	-5.94288e-06 	1.48848e-06 30.0007 	-5.94288e-06 	1.48848e-06 30.0007 	-5.94288e-06 	1.48848e-06 30.0007 	-5.94289e-06 	1.48848e-06 30.0004 	-1.31382e-07 	1.10455e-06 30.0007 	-5.87163e-06 	1.59287e-06 30.0007 	-5.87163e-06 	1.59287e-06 30.0007 	-5.87163e-06 	1.59287e-06 30.0007 	-5.87164e-06 	1.59287e-06 30.0004 	-1.59144e-06 	1.53876e-06 30.0007 	-5.80198e-06 	1.6793e-06 30.0007 	-5.80198e-06 	1.6793e-06 30.0007 	-5.80199e-06 	1.6793e-06 30.0007 	-5.80199e-06 	1.6793e-06 30.0003 	-1.54422e-06 	1.67821e-06 30.0007 	-5.73392e-06 	1.75009e-06 30.0007 	-5.73392e-06 	1.75009e-06 30.0007 	-5.73393e-06 	1.75009e-06 30.0007 	-5.73393e-06 	1.75009e-06 30.0003 	-1.36043e-07 	1.52471e-06 30.0006 	-5.66876e-06 	1.80979e-06 30.0006 	-5.66876e-06 	1.80979e-06 30.0006 	-5.66876e-06 	1.8098e-06 30.0006 	-5.66877e-06 	1.8098e-06 30.0003 	-1.37577e-07 	1.63226e-06 30.0006 	-5.60864e-06 	1.85993e-06 30.0006 	-5.60864e-06 	1.85993e-06 30.0006 	-5.60865e-06 	1.85993e-06 30.0006 	-5.60865e-06 	1.85993e-06 30.0003 	-1.39022e-07 	1.72399e-06 30.0006 	-5.5543e-06 	1.90042e-06 30.0006 	-5.5543e-06 	1.90042e-06 30.0006 	-5.5543e-06 	1.90042e-06 30.0006 	-5.55431e-06 	1.90042e-06 30.0003 	-1.38882e-06 	2.07103e-06 30.0006 	-5.50542e-06 	1.93108e-06 30.0006 	-5.50542e-06 	1.93108e-06 30.0006 	-5.50543e-06 	1.93108e-06 30.0006 	-5.50543e-06 	1.93108e-06 30.0003 	-1.36177e-06 	2.13096e-06 30.0006 	-5.46166e-06 	1.95181e-06 30.0006 	-5.46166e-06 	1.95181e-06 30.0006 	-5.46167e-06 	1.95181e-06 30.0006 	-5.46167e-06 	1.95182e-06 30.0003 	-1.42984e-07 	1.90825e-06 30.0006 	-5.42282e-06 	1.96276e-06 30.0006 	-5.42283e-06 	1.96276e-06 30.0006 	-5.42283e-06 	1.96276e-06 30.0006 	-5.42283e-06 	1.96276e-06 30.0003 	-1.32334e-06 	2.20766e-06 30.0006 	-5.38881e-06 	1.96429e-06 30.0006 	-5.38882e-06 	1.96429e-06 30.0006 	-5.38882e-06 	1.96429e-06 30.0006 	-5.38883e-06 	1.96429e-06 30.0003 	-1.31155e-06 	2.22554e-06 30.0006 	-5.35959e-06 	1.95688e-06 30.0006 	-5.3596e-06 	1.95688e-06 30.0006 	-5.3596e-06 	1.95688e-06 30.0006 	-5.35961e-06 	1.95689e-06 30.0003 	-1.46787e-07 	1.96616e-06 30.0005 	-5.3351e-06 	1.94108e-06 30.0005 	-5.33511e-06 	1.94108e-06 30.0005 	-5.33511e-06 	1.94108e-06 30.0005 	-5.33511e-06 	1.94108e-06 30.0003 	-1.48019e-07 	1.96056e-06 30.0005 	-5.31505e-06 	1.91789e-06 30.0005 	-5.31505e-06 	1.91789e-06 30.0005 	-5.31505e-06 	1.91789e-06 30.0005 	-5.31506e-06 	1.91789e-06 30.0003 	-1.49212e-07 	1.94423e-06 30.0005 	-5.2994e-06 	1.88795e-06 30.0005 	-5.2994e-06 	1.88795e-06 30.0005 	-5.2994e-06 	1.88795e-06 30.0005 	-5.29941e-06 	1.88796e-06 30.0003 	-1.30892e-06 	2.179e-06 30.0005 	-5.28801e-06 	1.85185e-06 30.0005 	-5.28801e-06 	1.85185e-06 30.0005 	-5.28802e-06 	1.85185e-06 30.0005 	-5.28802e-06 	1.85185e-06 30.0003 	-1.51514e-07 	1.88229e-06 30.0005 	-5.28069e-06 	1.81002e-06 30.0005 	-5.28069e-06 	1.81003e-06 30.0005 	-5.28069e-06 	1.81003e-06 30.0005 	-5.2807e-06 	1.81003e-06 30.0003 	-1.52613e-07 	1.83816e-06 30.0005 	-5.27718e-06 	1.7631e-06 30.0005 	-5.27718e-06 	1.7631e-06 30.0005 	-5.27719e-06 	1.7631e-06 30.0005 	-5.27719e-06 	1.76311e-06 30.0003 	-1.34807e-06 	2.04408e-06 30.0005 	-5.27729e-06 	1.71156e-06 30.0005 	-5.2773e-06 	1.71156e-06 30.0005 	-5.2773e-06 	1.71156e-06 30.0005 	-5.2773e-06 	1.71157e-06 30.0003 	-1.36812e-06 	1.98424e-06 30.0005 	-5.28084e-06 	1.65593e-06 30.0005 	-5.28084e-06 	1.65593e-06 30.0005 	-5.28084e-06 	1.65593e-06 30.0005 	-5.28085e-06 	1.65593e-06 30.0002 	-1.55765e-07 	1.66279e-06 30.0005 	-5.2876e-06 	1.59661e-06 30.0005 	-5.2876e-06 	1.59661e-06 30.0005 	-5.28761e-06 	1.59661e-06 30.0005 	-5.28761e-06 	1.59661e-06 30.0002 	-1.56804e-07 	1.59254e-06 30.0004 	-5.29751e-06 	1.53409e-06 30.0004 	-5.29751e-06 	1.53409e-06 30.0004 	-5.29752e-06 	1.53409e-06 30.0004 	-5.29752e-06 	1.53409e-06 30.0002 	-1.57863e-07 	1.51768e-06 30.0004 	-5.31041e-06 	1.46882e-06 30.0004 	-5.31041e-06 	1.46883e-06 30.0004 	-5.31041e-06 	1.46883e-06 30.0004 	-5.31042e-06 	1.46883e-06 30.0002 	-1.47974e-06 	1.69062e-06 30.0004 	-5.32591e-06 	1.40137e-06 30.0004 	-5.32591e-06 	1.40137e-06 30.0004 	-5.32592e-06 	1.40137e-06 30.0004 	-5.32592e-06 	1.40137e-06 30.0002 	-1.51425e-06 	1.60713e-06 30.0004 	-5.3438e-06 	1.33212e-06 30.0004 	-5.3438e-06 	1.33212e-06 30.0004 	-5.34381e-06 	1.33212e-06 30.0004 	-5.34381e-06 	1.33212e-06 30.0002 	-1.61083e-07 	1.27185e-06 30.0004 	-5.36381e-06 	1.26141e-06 30.0004 	-5.36381e-06 	1.26141e-06 30.0004 	-5.36382e-06 	1.26141e-06 30.0004 	-5.36382e-06 	1.26141e-06 30.0002 	-1.58958e-06 	1.4325e-06 30.0004 	-5.3856e-06 	1.18974e-06 30.0004 	-5.38561e-06 	1.18974e-06 30.0004 	-5.38561e-06 	1.18974e-06 30.0004 	-5.38561e-06 	1.18974e-06 30.0002 	-1.63007e-06 	1.34242e-06 30.0004 	-5.40921e-06 	1.1174e-06 30.0004 	-5.40921e-06 	1.1174e-06 30.0004 	-5.40921e-06 	1.11741e-06 30.0004 	-5.40922e-06 	1.11741e-06 30.0002 	-1.64105e-07 	1.00607e-06 30.0004 	-5.43441e-06 	1.04473e-06 30.0004 	-5.43441e-06 	1.04473e-06 30.0004 	-5.43441e-06 	1.04474e-06 30.0004 	-5.43442e-06 	1.04474e-06 30.0002 	-1.6507e-07 	9.15597e-07 30.0004 	-5.46003e-06 	9.72202e-07 30.0004 	-5.46003e-06 	9.72202e-07 30.0004 	-5.46003e-06 	9.72202e-07 30.0004 	-5.46003e-06 	9.72203e-07 30.0002 	-1.65969e-07 	8.24974e-07 30.0004 	-5.48604e-06 	8.99423e-07 30.0004 	-5.48604e-06 	8.99424e-07 30.0004 	-5.48604e-06 	8.99424e-07 30.0004 	-5.48604e-06 	8.99424e-07 30.0002 	-1.80698e-06 	9.75428e-07 30.0004 	-5.5128e-06 	8.25892e-07 30.0004 	-5.5128e-06 	8.25892e-07 30.0004 	-5.5128e-06 	8.25892e-07 30.0004 	-5.5128e-06 	8.25893e-07 30.0002 	-1.67662e-07 	6.43607e-07 30.0003 	-5.54255e-06 	7.51934e-07 30.0003 	-5.54255e-06 	7.51934e-07 30.0003 	-5.54255e-06 	7.51934e-07 30.0003 	-5.54255e-06 	7.51935e-07 30.0002 	-1.68498e-07 	5.52612e-07 30.0003 	-5.57701e-06 	6.77393e-07 30.0003 	-5.57701e-06 	6.77393e-07 30.0003 	-5.57701e-06 	6.77393e-07 30.0003 	-5.57701e-06 	6.77393e-07 30.0002 	-1.95532e-06 	7.0132e-07 30.0003 	-5.61383e-06 	6.04324e-07 30.0003 	-5.61383e-06 	6.04324e-07 30.0003 	-5.61383e-06 	6.04325e-07 30.0003 	-5.61383e-06 	6.04325e-07 30.0002 	-2.00752e-06 	6.11689e-07 30.0003 	-5.64998e-06 	5.34617e-07 30.0003 	-5.64998e-06 	5.34617e-07 30.0003 	-5.64998e-06 	5.34617e-07 30.0003 	-5.64998e-06 	5.34617e-07 30.0002 	-1.70989e-07 	2.80912e-07 30.0003 	-5.68109e-06 	4.67598e-07 30.0003 	-5.68109e-06 	4.67598e-07 30.0003 	-5.68109e-06 	4.67598e-07 30.0003 	-5.68109e-06 	4.67599e-07 30.0002 	-1.7182e-07 	1.97299e-07 30.0003 	-5.70949e-06 	4.03158e-07 30.0003 	-5.7095e-06 	4.03159e-07 30.0003 	-5.7095e-06 	4.03159e-07 30.0003 	-5.7095e-06 	4.03159e-07 30.0002 	-1.72612e-07 	1.16369e-07 30.0003 	-5.73764e-06 	3.39196e-07 30.0003 	-5.73764e-06 	3.39196e-07 30.0003 	-5.73765e-06 	3.39196e-07 30.0003 	-5.73765e-06 	3.39196e-07 30.0002 	-2.20078e-06 	2.74088e-07 30.0003 	-5.7656e-06 	2.75228e-07 30.0003 	-5.7656e-06 	2.75228e-07 30.0003 	-5.7656e-06 	2.75228e-07 30.0003 	-5.7656e-06 	2.75228e-07 30.0002 	-2.24771e-06 	1.96346e-07 30.0003 	-5.79243e-06 	2.10751e-07 30.0003 	-5.79243e-06 	2.10751e-07 30.0003 	-5.79243e-06 	2.10751e-07 30.0003 	-5.79243e-06 	2.10751e-07 30.0002 	-1.74807e-07 	-1.09175e-07 30.0003 	-5.82049e-06 	1.48757e-07 30.0003 	-5.82049e-06 	1.48757e-07 30.0003 	-5.82049e-06 	1.48757e-07 30.0003 	-5.82049e-06 	1.48757e-07 30.0002 	-2.34152e-06 	4.46637e-08 30.0003 	-5.84973e-06 	8.99632e-08 30.0003 	-5.84973e-06 	8.99632e-08 30.0003 	-5.84973e-06 	8.99632e-08 30.0003 	-5.84973e-06 	8.99632e-08 30.0002 	-2.38882e-06 	-2.91119e-08 30.0003 	-5.88016e-06 	3.47907e-08 30.0003 	-5.88016e-06 	3.47907e-08 30.0003 	-5.88016e-06 	3.47907e-08 30.0003 	-5.88016e-06 	3.47907e-08 30.0002 	-1.76841e-07 	-3.30801e-07 30.0003 	-5.91204e-06 	-1.70818e-08 30.0003 	-5.91204e-06 	-1.70818e-08 30.0003 	-5.91204e-06 	-1.70818e-08 30.0003 	-5.91204e-06 	-1.70818e-08 30.0002 	-1.77493e-07 	-4.01834e-07 30.0003 	-5.94514e-06 	-6.90565e-08 30.0003 	-5.94514e-06 	-6.90565e-08 30.0003 	-5.94514e-06 	-6.90565e-08 30.0003 	-5.94514e-06 	-6.90565e-08 30.0002 	-1.78093e-07 	-4.67104e-07 30.0003 	-5.97706e-06 	-1.23318e-07 30.0003 	-5.97706e-06 	-1.23318e-07 30.0003 	-5.97706e-06 	-1.23318e-07 30.0003 	-5.97706e-06 	-1.23318e-07 30.0002 	-2.58036e-06 	-3.0139e-07 30.0003 	-6.00482e-06 	-1.77962e-07 30.0003 	-6.00482e-06 	-1.77962e-07 30.0003 	-6.00482e-06 	-1.77962e-07 30.0003 	-6.00482e-06 	-1.77962e-07 30.0002 	-1.79266e-07 	-5.84915e-07 30.0003 	-6.02897e-06 	-2.29216e-07 30.0003 	-6.02897e-06 	-2.29216e-07 30.0003 	-6.02897e-06 	-2.29216e-07 30.0003 	-6.02897e-06 	-2.29216e-07 30.0002 	-1.79872e-07 	-6.42176e-07 30.0003 	-6.05219e-06 	-2.76177e-07 30.0003 	-6.05219e-06 	-2.76177e-07 30.0003 	-6.05219e-06 	-2.76177e-07 30.0003 	-6.05219e-06 	-2.76177e-07 30.0002 	-2.7084e-06 	-4.78995e-07 30.0003 	-6.07603e-06 	-3.19659e-07 30.0003 	-6.07602e-06 	-3.19659e-07 30.0003 	-6.07602e-06 	-3.19659e-07 30.0003 	-6.07602e-06 	-3.19659e-07 30.0002 	-2.74944e-06 	-5.34041e-07 30.0003 	-6.10036e-06 	-3.61185e-07 30.0003 	-6.10036e-06 	-3.61185e-07 30.0003 	-6.10036e-06 	-3.61185e-07 30.0003 	-6.10036e-06 	-3.61185e-07 30.0002 	-1.81607e-07 	-8.03816e-07 30.0003 	-6.12439e-06 	-4.0138e-07 30.0003 	-6.12439e-06 	-4.0138e-07 30.0003 	-6.12439e-06 	-4.0138e-07 30.0003 	-6.12439e-06 	-4.0138e-07 30.0001 	-1.82147e-07 	-8.53134e-07 30.0003 	-6.14777e-06 	-4.40374e-07 30.0003 	-6.14776e-06 	-4.40374e-07 30.0003 	-6.14776e-06 	-4.40374e-07 30.0003 	-6.14776e-06 	-4.40374e-07 30.0001 	-1.82667e-07 	-9.00342e-07 30.0003 	-6.17039e-06 	-4.77996e-07 30.0003 	-6.17039e-06 	-4.77995e-07 30.0003 	-6.17038e-06 	-4.77995e-07 30.0003 	-6.17038e-06 	-4.77995e-07 30.0001 	-2.9089e-06 	-7.31475e-07 30.0003 	-6.19215e-06 	-5.14213e-07 30.0003 	-6.19215e-06 	-5.14213e-07 30.0003 	-6.19214e-06 	-5.14213e-07 30.0003 	-6.19214e-06 	-5.14213e-07 30.0001 	-2.94677e-06 	-7.75602e-07 30.0003 	-6.21314e-06 	-5.48831e-07 30.0003 	-6.21314e-06 	-5.48831e-07 30.0003 	-6.21314e-06 	-5.48831e-07 30.0003 	-6.21314e-06 	-5.4883e-07 30.0001 	-1.84182e-07 	-1.02955e-06 30.0003 	-6.23329e-06 	-5.82039e-07 30.0003 	-6.23329e-06 	-5.82039e-07 30.0003 	-6.23329e-06 	-5.82039e-07 30.0003 	-6.23328e-06 	-5.82039e-07 30.0001 	-3.01978e-06 	-8.57489e-07 30.0003 	-6.25253e-06 	-6.13884e-07 30.0003 	-6.25253e-06 	-6.13884e-07 30.0003 	-6.25252e-06 	-6.13884e-07 30.0003 	-6.25252e-06 	-6.13884e-07 30.0001 	-3.05487e-06 	-8.95499e-07 30.0003 	-6.27101e-06 	-6.44412e-07 30.0003 	-6.27101e-06 	-6.44412e-07 30.0003 	-6.27101e-06 	-6.44412e-07 30.0003 	-6.27101e-06 	-6.44411e-07 30.0001 	-1.85604e-07 	-1.14086e-06 30.0003 	-6.28886e-06 	-6.73612e-07 30.0003 	-6.28885e-06 	-6.73611e-07 30.0003 	-6.28885e-06 	-6.73611e-07 30.0003 	-6.28885e-06 	-6.73611e-07 30.0001 	-1.86071e-07 	-1.17461e-06 30.0003 	-6.30585e-06 	-7.01429e-07 30.0003 	-6.30585e-06 	-7.01429e-07 30.0003 	-6.30585e-06 	-7.01429e-07 30.0003 	-6.30585e-06 	-7.01429e-07 30.0001 	-1.86512e-07 	-1.2067e-06 30.0003 	-6.32191e-06 	-7.27862e-07 30.0003 	-6.32191e-06 	-7.27862e-07 30.0003 	-6.32191e-06 	-7.27862e-07 30.0003 	-6.3219e-06 	-7.27861e-07 30.0001 	-3.18632e-06 	-1.03102e-06 30.0003 	-6.33714e-06 	-7.52976e-07 30.0003 	-6.33714e-06 	-7.52976e-07 30.0003 	-6.33714e-06 	-7.52976e-07 30.0003 	-6.33714e-06 	-7.52975e-07 30.0001 	-1.87361e-07 	-1.26598e-06 30.0003 	-6.35167e-06 	-7.76944e-07 30.0003 	-6.35166e-06 	-7.76944e-07 30.0003 	-6.35166e-06 	-7.76944e-07 30.0003 	-6.35166e-06 	-7.76944e-07 30.0001 	-1.87782e-07 	-1.29334e-06 30.0003 	-6.36546e-06 	-7.99816e-07 30.0003 	-6.36546e-06 	-7.99815e-07 30.0003 	-6.36546e-06 	-7.99815e-07 30.0003 	-6.36545e-06 	-7.99815e-07 30.0001 	-3.2757e-06 	-1.11607e-06 30.0003 	-6.37852e-06 	-8.21546e-07 30.0003 	-6.37851e-06 	-8.21546e-07 30.0003 	-6.37851e-06 	-8.21546e-07 30.0003 	-6.37851e-06 	-8.21545e-07 30.0001 	-3.30382e-06 	-1.14155e-06 30.0003 	-6.39089e-06 	-8.41981e-07 30.0003 	-6.39088e-06 	-8.41981e-07 30.0003 	-6.39088e-06 	-8.41981e-07 30.0003 	-6.39088e-06 	-8.41981e-07 30.0001 	-1.88979e-07 	-1.36688e-06 30.0003 	-6.40251e-06 	-8.61378e-07 30.0003 	-6.40251e-06 	-8.61377e-07 30.0003 	-6.40251e-06 	-8.61377e-07 30.0003 	-6.4025e-06 	-8.61377e-07 30.0001 	-1.89364e-07 	-1.38876e-06 30.0003 	-6.41344e-06 	-8.79817e-07 30.0003 	-6.41343e-06 	-8.79817e-07 30.0003 	-6.41343e-06 	-8.79817e-07 30.0003 	-6.41343e-06 	-8.79817e-07 30.0001 	-1.89738e-07 	-1.40941e-06 30.0003 	-6.42366e-06 	-8.97303e-07 30.0003 	-6.42366e-06 	-8.97302e-07 30.0003 	-6.42366e-06 	-8.97302e-07 30.0003 	-6.42365e-06 	-8.97302e-07 30.0001 	-3.40814e-06 	-1.23055e-06 30.0003 	-6.43321e-06 	-9.13892e-07 30.0003 	-6.43321e-06 	-9.13891e-07 30.0003 	-6.43321e-06 	-9.13891e-07 30.0003 	-6.4332e-06 	-9.13891e-07 30.0001 	-3.43228e-06 	-1.24988e-06 30.0003 	-6.44218e-06 	-9.29577e-07 30.0003 	-6.44218e-06 	-9.29576e-07 30.0003 	-6.44218e-06 	-9.29576e-07 30.0003 	-6.44218e-06 	-9.29576e-07 30.0001 	-1.90859e-07 	-1.46458e-06 30.0003 	-6.45052e-06 	-9.44424e-07 30.0003 	-6.45051e-06 	-9.44423e-07 30.0003 	-6.45051e-06 	-9.44423e-07 30.0003 	-6.45051e-06 	-9.44423e-07 30.0001 	-3.4784e-06 	-1.28536e-06 30.0003 	-6.45818e-06 	-9.5843e-07 30.0003 	-6.45818e-06 	-9.5843e-07 30.0003 	-6.45817e-06 	-9.5843e-07 30.0003 	-6.45817e-06 	-9.58429e-07 30.0001 	-3.50045e-06 	-1.30163e-06 30.0003 	-6.46525e-06 	-9.71728e-07 30.0003 	-6.46525e-06 	-9.71727e-07 30.0003 	-6.46525e-06 	-9.71727e-07 30.0003 	-6