# vtk DataFile Version 2.0
track0
ASCII
DATASET POLYDATA
POINTS 15780 float
-1.001 -0.05 0.0011
-1.0008 -0.05 0.0011
-1.0006 -0.05 0.0011
-1.0004 -0.05 0.0011
-1.0002 -0.05 0.0011
-1 -0.05 0.0011
-0.9875 -0.05 0.0011
-0.975 -0.05 0.0011
-0.9625 -0.05 0.0011
-0.95 -0.05 0.0011
-0.9375 -0.05 0.00109999
-0.925 -0.05 0.00109999
-0.9125 -0.05 0.00109999
-0.9 -0.05 0.00109999
-0.8875 -0.05 0.00109999
-0.875 -0.05 0.00109999
-0.8625 -0.05 0.00109999
-0.85 -0.05 0.00109999
-0.8375 -0.05 0.00109998
-0.825 -0.0500001 0.00109998
-0.8125 -0.0500001 0.00109998
-0.8 -0.0500001 0.00109998
-0.7875 -0.0500001 0.00109998
-0.775 -0.0500001 0.00109998
-0.7625 -0.0500001 0.00109998
-0.75 -0.0500001 0.00109998
-0.7375 -0.0500001 0.00109997
-0.725 -0.0500001 0.00109997
-0.7125 -0.0500001 0.00109997
-0.7 -0.0500001 0.00109997
-0.6875 -0.0500001 0.00109997
-0.675 -0.0500001 0.00109997
-0.6625 -0.0500001 0.00109997
-0.65 -0.0500001 0.00109996
-0.6375 -0.0500001 0.00109996
-0.625 -0.0500001 0.00109996
-0.6125 -0.0500001 0.00109996
-0.6 -0.0500001 0.00109996
-0.5875 -0.0500001 0.00109996
-0.575 -0.0500001 0.00109996
-0.5625 -0.0500001 0.00109996
-0.55 -0.0500001 0.00109995
-0.5375 -0.0500001 0.00109995
-0.525 -0.0500001 0.00109995
-0.5125 -0.0500001 0.00109995
-0.5 -0.0500001 0.00109995
-0.4875 -0.0500001 0.00109995
-0.475 -0.0500001 0.00109995
-0.4625 -0.0500001 0.00109994
-0.45 -0.0500002 0.00109994
-0.4375 -0.0500002 0.00109994
-0.425 -0.0500002 0.00109994
-0.4125 -0.0500002 0.00109994
-0.4 -0.0500002 0.00109994
-0.3875 -0.0500002 0.00109994
-0.375 -0.0500002 0.00109994
-0.3625 -0.0500002 0.00109993
-0.35 -0.0500002 0.00109993
-0.3375 -0.0500002 0.00109993
-0.325 -0.0500002 0.00109993
-0.3125 -0.0500002 0.00109993
-0.3 -0.0500002 0.00109993
-0.2875 -0.0500002 0.00109993
-0.275 -0.0500002 0.00109993
-0.2625 -0.0500002 0.00109992
-0.25 -0.0500002 0.00109992
-0.2375 -0.0500002 0.00109992
-0.225 -0.0500002 0.00109992
-0.2125 -0.0500002 0.00109992
-0.2 -0.0500002 0.00109992
-0.1875 -0.0500002 0.00109992
-0.175 -0.0500002 0.00109992
-0.1625 -0.0500002 0.00109991
-0.15 -0.0500002 0.00109991
-0.1375 -0.0500002 0.00109991
-0.125 -0.0500002 0.00109991
-0.1125 -0.0500002 0.00109991
-0.1 -0.0500002 0.00109991
-0.0875 -0.0500002 0.00109991
-0.075 -0.0500002 0.00109991
-0.0625 -0.0500002 0.00109991
-0.05 -0.0500003 0.00109991
-0.0375 -0.0500003 0.0010999
-0.025 -0.0500003 0.0010999
-0.0125 -0.0500003 0.0010999
2.10607e-13 -0.0500003 0.0010999
0.0125 -0.0500003 0.0010999
0.025 -0.0500003 0.0010999
0.0375 -0.0500003 0.0010999
0.05 -0.0500003 0.0010999
0.0625 -0.0500003 0.0010999
0.075 -0.0500003 0.0010999
0.0875 -0.0500003 0.0010999
0.1 -0.0500003 0.00109989
0.1125 -0.0500003 0.00109989
0.125 -0.0500003 0.00109989
0.1375 -0.0500003 0.00109989
0.15 -0.0500003 0.00109989
0.1625 -0.0500003 0.00109989
0.175 -0.0500003 0.00109989
0.1875 -0.0500003 0.00109989
0.2 -0.0500003 0.00109989
0.2125 -0.0500003 0.00109989
0.225 -0.0500003 0.00109989
0.2375 -0.0500003 0.00109989
0.25 -0.0500003 0.00109989
0.2625 -0.0500003 0.00109988
0.275 -0.0500003 0.00109988
0.2875 -0.0500003 0.00109988
0.3 -0.0500003 0.00109988
0.3125 -0.0500003 0.00109988
0.325 -0.0500003 0.00109988
0.3375 -0.0500003 0.00109988
0.35 -0.0500003 0.00109988
0.3625 -0.0500003 0.00109988
0.375 -0.0500003 0.00109988
0.3875 -0.0500003 0.00109988
0.4 -0.0500004 0.00109988
0.4125 -0.0500004 0.00109988
0.425 -0.0500004 0.00109988
0.4375 -0.0500004 0.00109988
0.45 -0.0500004 0.00109988
0.4625 -0.0500004 0.00109988
0.475 -0.0500004 0.00109988
0.4875 -0.0500004 0.00109988
0.5 -0.0500004 0.00109988
0.5125 -0.0500004 0.00109988
0.525 -0.0500004 0.00109988
0.5375 -0.0500004 0.00109988
0.55 -0.0500004 0.00109988
0.5625 -0.0500004 0.00109988
0.575 -0.0500004 0.00109987
0.5875 -0.0500004 0.00109987
0.6 -0.0500004 0.00109987
0.6125 -0.0500004 0.00109987
0.625 -0.0500004 0.00109987
0.6375 -0.0500004 0.00109987
0.65 -0.0500004 0.00109987
0.6625 -0.0500004 0.00109987
0.675 -0.0500004 0.00109987
0.6875 -0.0500004 0.00109987
0.7 -0.0500004 0.00109987
0.7125 -0.0500004 0.00109987
0.725 -0.0500004 0.00109987
0.7375 -0.0500004 0.00109987
0.75 -0.0500004 0.00109987
0.7625 -0.0500004 0.00109987
0.775 -0.0500004 0.00109987
0.7875 -0.0500004 0.00109987
0.8 -0.0500004 0.00109987
0.8125 -0.0500004 0.00109987
0.825 -0.0500004 0.00109987
0.8375 -0.0500004 0.00109987
0.85 -0.0500004 0.00109987
0.8625 -0.0500004 0.00109987
0.875 -0.0500004 0.00109987
0.8875 -0.0500004 0.00109987
0.9 -0.0500004 0.00109987
0.9125 -0.0500005 0.00109988
0.925 -0.0500005 0.00109988
0.9375 -0.0500005 0.00109988
0.95 -0.0500005 0.00109988
0.9625 -0.0500005 0.00109988
0.975 -0.0500005 0.00109988
0.9875 -0.0500005 0.00109988
1 -0.0500005 0.00109988
1.0125 -0.0500005 0.00109988
1.025 -0.0500005 0.00109988
1.0375 -0.0500005 0.00109988
1.05 -0.0500005 0.00109988
1.0625 -0.0500005 0.00109988
1.075 -0.0500005 0.00109988
1.0875 -0.0500005 0.00109988
1.1 -0.0500005 0.00109988
1.1125 -0.0500005 0.00109988
1.125 -0.0500005 0.00109988
1.1375 -0.0500005 0.00109988
1.15 -0.0500005 0.00109988
1.1625 -0.0500005 0.00109988
1.175 -0.0500005 0.00109988
1.1875 -0.0500005 0.00109988
1.2 -0.0500005 0.00109988
1.2125 -0.0500005 0.00109988
1.225 -0.0500005 0.00109988
1.2375 -0.0500005 0.00109989
1.25 -0.0500005 0.00109989
1.2625 -0.0500005 0.00109989
1.275 -0.0500005 0.00109989
1.2875 -0.0500005 0.00109989
1.3 -0.0500005 0.00109989
1.3125 -0.0500005 0.00109989
1.325 -0.0500005 0.00109989
1.3375 -0.0500005 0.00109989
1.35 -0.0500005 0.00109989
1.3625 -0.0500005 0.00109989
1.375 -0.0500005 0.00109989
1.3875 -0.0500005 0.00109989
1.4 -0.0500005 0.00109989
1.4125 -0.0500005 0.00109989
1.425 -0.0500005 0.00109989
1.4375 -0.0500005 0.0010999
1.45 -0.0500005 0.0010999
1.4625 -0.0500005 0.0010999
1.475 -0.0500005 0.0010999
1.4875 -0.0500005 0.0010999
1.5 -0.0500006 0.0010999
1.5125 -0.0500006 0.0010999
1.525 -0.0500006 0.0010999
1.5375 -0.0500006 0.0010999
1.55 -0.0500006 0.0010999
1.5625 -0.0500006 0.0010999
1.575 -0.0500006 0.0010999
1.5875 -0.0500006 0.0010999
1.6 -0.0500006 0.0010999
1.6125 -0.0500006 0.00109991
1.625 -0.0500006 0.00109991
1.6375 -0.0500006 0.00109991
1.65 -0.0500006 0.00109991
1.6625 -0.0500006 0.00109991
1.675 -0.0500006 0.00109991
1.6875 -0.0500006 0.00109991
1.7 -0.0500006 0.00109991
1.7125 -0.0500006 0.00109991
1.725 -0.0500006 0.00109991
1.7375 -0.0500006 0.00109991
1.75 -0.0500006 0.00109991
1.7625 -0.0500006 0.00109992
1.775 -0.0500006 0.00109992
1.7875 -0.0500006 0.00109992
1.8 -0.0500006 0.00109992
1.8125 -0.0500006 0.00109992
1.825 -0.0500006 0.00109992
1.8375 -0.0500006 0.00109992
1.85 -0.0500006 0.00109992
1.8625 -0.0500006 0.00109992
1.875 -0.0500006 0.00109992
1.8875 -0.0500006 0.00109992
1.9 -0.0500006 0.00109992
1.9125 -0.0500006 0.00109993
1.925 -0.0500006 0.00109993
1.9375 -0.0500006 0.00109993
1.95 -0.0500006 0.00109993
1.9625 -0.0500006 0.00109993
1.975 -0.0500006 0.00109993
1.9875 -0.0500006 0.00109993
2 -0.0500006 0.00109993
2.0125 -0.0500006 0.00109993
2.025 -0.0500006 0.00109993
2.0375 -0.0500006 0.00109993
2.05 -0.0500006 0.00109993
2.0625 -0.0500006 0.00109994
2.075 -0.0500006 0.00109994
2.0875 -0.0500006 0.00109994
2.1 -0.0500006 0.00109994
2.1125 -0.0500006 0.00109994
2.125 -0.0500006 0.00109994
2.1375 -0.0500006 0.00109994
2.15 -0.0500006 0.00109994
2.1625 -0.0500006 0.00109994
2.175 -0.0500007 0.00109994
2.1875 -0.0500007 0.00109994
2.2 -0.0500007 0.00109994
2.2125 -0.0500007 0.00109994
2.225 -0.0500007 0.00109995
2.2375 -0.0500007 0.00109995
2.25 -0.0500007 0.00109995
2.2625 -0.0500007 0.00109995
2.275 -0.0500007 0.00109995
2.2875 -0.0500007 0.00109995
2.3 -0.0500007 0.00109995
2.3125 -0.0500007 0.00109995
2.325 -0.0500007 0.00109995
2.3375 -0.0500007 0.00109995
2.35 -0.0500007 0.00109995
2.3625 -0.0500007 0.00109995
2.375 -0.0500007 0.00109995
2.3875 -0.0500007 0.00109996
2.4 -0.0500007 0.00109996
2.4125 -0.0500007 0.00109996
2.425 -0.0500007 0.00109996
2.4375 -0.0500007 0.00109996
2.45 -0.0500007 0.00109996
2.4625 -0.0500007 0.00109996
2.475 -0.0500007 0.00109996
2.4875 -0.0500007 0.00109996
2.5 -0.0500007 0.00109996
2.5125 -0.0500007 0.00109996
2.525 -0.0500007 0.00109996
2.5375 -0.0500007 0.00109996
2.55 -0.0500007 0.00109996
2.5625 -0.0500007 0.00109997
2.575 -0.0500007 0.00109997
2.5875 -0.0500007 0.00109997
2.6 -0.0500007 0.00109997
2.6125 -0.0500007 0.00109997
2.625 -0.0500007 0.00109997
2.6375 -0.0500007 0.00109997
2.65 -0.0500007 0.00109997
2.6625 -0.0500007 0.00109997
2.675 -0.0500007 0.00109997
2.6875 -0.0500007 0.00109997
2.7 -0.0500007 0.00109997
2.7125 -0.0500007 0.00109997
2.725 -0.0500007 0.00109997
2.7375 -0.0500007 0.00109997
2.75 -0.0500007 0.00109997
2.7625 -0.0500007 0.00109998
2.775 -0.0500007 0.00109998
2.7875 -0.0500007 0.00109998
2.8 -0.0500007 0.00109998
2.8125 -0.0500007 0.00109998
2.825 -0.0500007 0.00109998
2.8375 -0.0500007 0.00109998
2.85 -0.0500007 0.00109998
2.8625 -0.0500008 0.00109998
2.875 -0.0500008 0.00109998
2.8875 -0.0500008 0.00109998
2.9 -0.0500008 0.00109998
2.9125 -0.0500008 0.00109998
2.925 -0.0500008 0.00109998
2.9375 -0.0500008 0.00109998
2.95 -0.0500008 0.00109998
2.9625 -0.0500008 0.00109998
2.975 -0.0500008 0.00109998
2.9875 -0.0500008 0.00109998
3 -0.0500008 0.00109998
3.0125 -0.0500008 0.00109999
3.025 -0.0500008 0.00109999
3.0375 -0.0500008 0.00109999
3.05 -0.0500008 0.00109999
3.0625 -0.0500008 0.00109999
3.075 -0.0500008 0.00109999
3.0875 -0.0500008 0.00109999
3.1 -0.0500008 0.00109999
3.1125 -0.0500008 0.00109999
3.125 -0.0500008 0.00109999
3.1375 -0.0500008 0.00109999
3.15 -0.0500008 0.00109999
3.1625 -0.0500008 0.00109999
3.175 -0.0500008 0.00109999
3.1875 -0.0500008 0.00109999
3.2 -0.0500008 0.00109999
3.2125 -0.0500008 0.00109999
3.225 -0.0500008 0.00109999
3.2375 -0.0500008 0.00109999
3.25 -0.0500008 0.00109999
3.2625 -0.0500008 0.00109999
3.275 -0.0500008 0.00109999
3.2875 -0.0500008 0.00109999
3.3 -0.0500008 0.00109999
3.3125 -0.0500008 0.00109999
3.325 -0.0500008 0.00109999
3.3375 -0.0500008 0.00109999
3.35 -0.0500008 0.0011
3.3625 -0.0500008 0.0011
[...]
POINT_DATA 15780
 FIELD attributes 1
U 3 15780 float
30.0002 	-7.0179e-06 	-6.30587e-06 30.0002 	-6.84341e-06 	-6.51453e-06 30.0002 	-6.66892e-06 	-6.7232e-06 30.0002 	-6.49444e-06 	-6.93187e-06 30.0002 	-6.31995e-06 	-7.14053e-06 30.0002 	-6.14546e-06 	-7.3492e-06 30.0004 	-1.23851e-05 	-1.26101e-06 30.0004 	-1.23851e-05 	-1.26101e-06 30.0004 	-1.23851e-05 	-1.26101e-06 30.0004 	-1.23851e-05 	-1.26101e-06 30.0002 	-7.05357e-08 	-6.84366e-06 30.0005 	-1.07091e-05 	-1.68706e-06 30.0005 	-1.07091e-05 	-1.68706e-06 30.0005 	-1.07091e-05 	-1.68706e-06 30.0005 	-1.07091e-05 	-1.68706e-06 30.0002 	-7.22145e-08 	-6.59607e-06 30.0005 	-9.95848e-06 	-2.08024e-06 30.0005 	-9.95847e-06 	-2.08024e-06 30.0005 	-9.95846e-06 	-2.08024e-06 30.0005 	-9.95846e-06 	-2.08024e-06 30.0003 	-4.59307e-06 	-6.24725e-06 30.0005 	-9.69171e-06 	-2.34897e-06 30.0005 	-9.6917e-06 	-2.34897e-06 30.0005 	-9.69169e-06 	-2.34897e-06 30.0005 	-9.69168e-06 	-2.34896e-06 30.0003 	-7.57936e-08 	-6.57615e-06 30.0005 	-9.52349e-06 	-2.49784e-06 30.0005 	-9.52349e-06 	-2.49784e-06 30.0005 	-9.52348e-06 	-2.49784e-06 30.0005 	-9.52347e-06 	-2.49783e-06 30.0003 	-7.75403e-08 	-6.52626e-06 30.0005 	-9.38713e-06 	-2.55608e-06 30.0005 	-9.38712e-06 	-2.55608e-06 30.0005 	-9.38711e-06 	-2.55608e-06 30.0005 	-9.3871e-06 	-2.55607e-06 30.0003 	-4.26687e-06 	-6.08528e-06 30.0005 	-9.27971e-06 	-2.55831e-06 30.0005 	-9.2797e-06 	-2.5583e-06 30.0005 	-9.27969e-06 	-2.5583e-06 30.0005 	-9.27968e-06 	-2.5583e-06 30.0003 	-4.19925e-06 	-5.97789e-06 30.0006 	-9.18747e-06 	-2.53044e-06 30.0006 	-9.18746e-06 	-2.53044e-06 30.0006 	-9.18745e-06 	-2.53043e-06 30.0006 	-9.18744e-06 	-2.53043e-06 30.0003 	-8.2812e-08 	-6.20127e-06 30.0006 	-9.09739e-06 	-2.48119e-06 30.0006 	-9.09738e-06 	-2.48119e-06 30.0006 	-9.09737e-06 	-2.48119e-06 30.0006 	-9.09737e-06 	-2.48118e-06 30.0003 	-8.45586e-08 	-6.05424e-06 30.0006 	-9.00494e-06 	-2.41362e-06 30.0006 	-9.00493e-06 	-2.41362e-06 30.0006 	-9.00492e-06 	-2.41361e-06 30.0006 	-9.00491e-06 	-2.41361e-06 30.0003 	-8.63129e-08 	-5.88782e-06 30.0006 	-8.90879e-06 	-2.32973e-06 30.0006 	-8.90879e-06 	-2.32973e-06 30.0006 	-8.90878e-06 	-2.32972e-06 30.0006 	-8.90877e-06 	-2.32972e-06 30.0003 	-3.93782e-06 	-5.36347e-06 30.0006 	-8.80875e-06 	-2.23275e-06 30.0006 	-8.80875e-06 	-2.23275e-06 30.0006 	-8.80874e-06 	-2.23274e-06 30.0006 	-8.80873e-06 	-2.23274e-06 30.0003 	-3.86403e-06 	-5.16476e-06 30.0006 	-8.70445e-06 	-2.12414e-06 30.0006 	-8.70444e-06 	-2.12414e-06 30.0006 	-8.70443e-06 	-2.12414e-06 30.0006 	-8.70443e-06 	-2.12414e-06 30.0003 	-9.15627e-08 	-5.28458e-06 30.0006 	-8.59625e-06 	-2.00508e-06 30.0006 	-8.59624e-06 	-2.00508e-06 30.0006 	-8.59624e-06 	-2.00507e-06 30.0006 	-8.59623e-06 	-2.00507e-06 30.0003 	-3.7044e-06 	-4.7194e-06 30.0007 	-8.48488e-06 	-1.87668e-06 30.0007 	-8.48488e-06 	-1.87668e-06 30.0007 	-8.48487e-06 	-1.87667e-06 30.0007 	-8.48487e-06 	-1.87667e-06 30.0003 	-3.61931e-06 	-4.47431e-06 30.0007 	-8.37154e-06 	-1.73884e-06 30.0007 	-8.37153e-06 	-1.73883e-06 30.0007 	-8.37153e-06 	-1.73883e-06 30.0007 	-8.37152e-06 	-1.73883e-06 30.0004 	-9.67914e-08 	-4.54319e-06 30.0007 	-8.25994e-06 	-1.59803e-06 30.0007 	-8.25993e-06 	-1.59803e-06 30.0007 	-8.25993e-06 	-1.59803e-06 30.0007 	-8.25992e-06 	-1.59803e-06 30.0004 	-9.85288e-08 	-4.27124e-06 30.0007 	-8.14796e-06 	-1.46323e-06 30.0007 	-8.14795e-06 	-1.46323e-06 30.0007 	-8.14795e-06 	-1.46323e-06 30.0007 	-8.14794e-06 	-1.46323e-06 30.0004 	-1.00273e-07 	-3.98927e-06 30.0007 	-8.01991e-06 	-1.32072e-06 30.0007 	-8.0199e-06 	-1.32072e-06 30.0007 	-8.0199e-06 	-1.32072e-06 30.0007 	-8.01989e-06 	-1.32072e-06 30.0004 	-3.25097e-06 	-3.37796e-06 30.0007 	-7.88112e-06 	-1.168e-06 30.0007 	-7.88112e-06 	-1.168e-06 30.0007 	-7.88112e-06 	-1.168e-06 30.0007 	-7.88111e-06 	-1.168e-06 30.0004 	-1.0372e-07 	-3.40289e-06 30.0007 	-7.74521e-06 	-1.00788e-06 30.0007 	-7.74521e-06 	-1.00788e-06 30.0007 	-7.7452e-06 	-1.00788e-06 30.0007 	-7.7452e-06 	-1.00787e-06 30.0004 	-1.05441e-07 	-3.10328e-06 30.0007 	-7.6111e-06 	-8.41861e-07 30.0007 	-7.61109e-06 	-8.41861e-07 30.0007 	-7.61109e-06 	-8.41861e-07 30.0007 	-7.61109e-06 	-8.4186e-07 30.0004 	-2.93183e-06 	-2.48789e-06 30.0007 	-7.47534e-06 	-6.70209e-07 30.0007 	-7.47534e-06 	-6.70209e-07 30.0007 	-7.47534e-06 	-6.70209e-07 30.0007 	-7.47534e-06 	-6.70209e-07 30.0004 	-2.82537e-06 	-2.18314e-06 30.0007 	-7.34322e-06 	-4.97057e-07 30.0007 	-7.34322e-06 	-4.97057e-07 30.0007 	-7.34322e-06 	-4.97057e-07 30.0007 	-7.34322e-06 	-4.97057e-07 30.0004 	-1.10557e-07 	-2.17112e-06 30.0007 	-7.21544e-06 	-3.17329e-07 30.0007 	-7.21544e-06 	-3.17329e-07 30.0007 	-7.21543e-06 	-3.17329e-07 30.0007 	-7.21543e-06 	-3.17329e-07 30.0004 	-1.12245e-07 	-1.85338e-06 30.0007 	-7.09872e-06 	-1.38225e-07 30.0007 	-7.09872e-06 	-1.38225e-07 30.0007 	-7.09872e-06 	-1.38225e-07 30.0007 	-7.09872e-06 	-1.38225e-07 30.0004 	-1.13915e-07 	-1.54904e-06 30.0007 	-6.98541e-06 	4.08456e-08 30.0007 	-6.98541e-06 	4.08456e-08 30.0007 	-6.98541e-06 	4.08456e-08 30.0007 	-6.98541e-06 	4.08456e-08 30.0004 	-2.43896e-06 	-9.58517e-07 30.0007 	-6.87183e-06 	2.14658e-07 30.0007 	-6.87183e-06 	2.14658e-07 30.0007 	-6.87183e-06 	2.14658e-07 30.0007 	-6.87183e-06 	2.14658e-07 30.0004 	-2.34736e-06 	-6.82315e-07 30.0007 	-6.7537e-06 	3.90708e-07 30.0007 	-6.7537e-06 	3.90708e-07 30.0007 	-6.7537e-06 	3.90708e-07 30.0007 	-6.7537e-06 	3.90708e-07 30.0004 	-1.18911e-07 	-7.09787e-07 30.0007 	-6.64321e-06 	5.64363e-07 30.0007 	-6.64321e-06 	5.64363e-07 30.0007 	-6.64321e-06 	5.64363e-07 30.0007 	-6.64321e-06 	5.64363e-07 30.0004 	-2.16704e-06 	-1.45456e-07 30.0007 	-6.53625e-06 	7.27392e-07 30.0007 	-6.53625e-06 	7.27392e-07 30.0007 	-6.53625e-06 	7.27393e-07 30.0007 	-6.53625e-06 	7.27393e-07 30.0004 	-2.08137e-06 	1.13821e-07 30.0007 	-6.43095e-06 	8.78831e-07 30.0007 	-6.43096e-06 	8.78831e-07 30.0007 	-6.43096e-06 	8.78832e-07 30.0007 	-6.43096e-06 	8.78832e-07 30.0004 	-1.23841e-07 	7.05606e-08 30.0007 	-6.32336e-06 	1.01779e-06 30.0007 	-6.32336e-06 	1.01779e-06 30.0007 	-6.32337e-06 	1.01779e-06 30.0007 	-6.32337e-06 	1.01779e-06 30.0004 	-1.25426e-07 	3.15792e-07 30.0007 	-6.21701e-06 	1.14062e-06 30.0007 	-6.21701e-06 	1.14062e-06 30.0007 	-6.21702e-06 	1.14062e-06 30.0007 	-6.21702e-06 	1.14062e-06 30.0004 	-1.27014e-07 	5.45513e-07 30.0007 	-6.11576e-06 	1.25632e-06 30.0007 	-6.11576e-06 	1.25632e-06 30.0007 	-6.11576e-06 	1.25633e-06 30.0007 	-6.11577e-06 	1.25633e-06 30.0004 	-1.76456e-06 	1.03207e-06 30.0007 	-6.02304e-06 	1.37127e-06 30.0007 	-6.02304e-06 	1.37128e-06 30.0007 	-6.02304e-06 	1.37128e-06 30.0007 	-6.02305e-06 	1.37128e-06 30.0004 	-1.30121e-07 	9.36933e-07 30.0007 	-5.94337e-06 	1.4885e-06 30.0007 	-5.94337e-06 	1.4885e-06 30.0007 	-5.94337e-06 	1.4885e-06 30.0007 	-5.94338e-06 	1.48851e-06 30.0004 	-1.31619e-07 	1.10455e-06 30.0007 	-5.87216e-06 	1.59289e-06 30.0007 	-5.87216e-06 	1.59289e-06 30.0007 	-5.87216e-06 	1.59289e-06 30.0007 	-5.87217e-06 	1.59289e-06 30.0004 	-1.59168e-06 	1.53876e-06 30.0007 	-5.80254e-06 	1.67932e-06 30.0007 	-5.80255e-06 	1.67932e-06 30.0007 	-5.80255e-06 	1.67932e-06 30.0007 	-5.80255e-06 	1.67932e-06 30.0003 	-1.54445e-06 	1.67821e-06 30.0007 	-5.73445e-06 	1.75012e-06 30.0007 	-5.73446e-06 	1.75012e-06 30.0007 	-5.73446e-06 	1.75012e-06 30.0007 	-5.73447e-06 	1.75012e-06 30.0003 	-1.36303e-07 	1.52472e-06 30.0006 	-5.66929e-06 	1.80982e-06 30.0006 	-5.66929e-06 	1.80982e-06 30.0006 	-5.6693e-06 	1.80983e-06 30.0006 	-5.6693e-06 	1.80983e-06 30.0003 	-1.3784e-07 	1.63227e-06 30.0006 	-5.6092e-06 	1.85996e-06 30.0006 	-5.6092e-06 	1.85996e-06 30.0006 	-5.60921e-06 	1.85996e-06 30.0006 	-5.60921e-06 	1.85996e-06 30.0003 	-1.39295e-07 	1.724e-06 30.0006 	-5.55488e-06 	1.90045e-06 30.0006 	-5.55489e-06 	1.90045e-06 30.0006 	-5.55489e-06 	1.90046e-06 30.0006 	-5.55489e-06 	1.90046e-06 30.0003 	-1.38906e-06 	2.07103e-06 30.0006 	-5.50602e-06 	1.93111e-06 30.0006 	-5.50602e-06 	1.93111e-06 30.0006 	-5.50603e-06 	1.93112e-06 30.0006 	-5.50603e-06 	1.93112e-06 30.0003 	-1.36201e-06 	2.13096e-06 30.0006 	-5.4622e-06 	1.95185e-06 30.0006 	-5.46221e-06 	1.95185e-06 30.0006 	-5.46221e-06 	1.95185e-06 30.0006 	-5.46222e-06 	1.95185e-06 30.0003 	-1.43239e-07 	1.90827e-06 30.0006 	-5.42332e-06 	1.96279e-06 30.0006 	-5.42333e-06 	1.9628e-06 30.0006 	-5.42333e-06 	1.9628e-06 30.0006 	-5.42334e-06 	1.9628e-06 30.0003 	-1.32355e-06 	2.20766e-06 30.0006 	-5.38933e-06 	1.96432e-06 30.0006 	-5.38934e-06 	1.96433e-06 30.0006 	-5.38934e-06 	1.96433e-06 30.0006 	-5.38934e-06 	1.96433e-06 30.0003 	-1.31175e-06 	2.22554e-06 30.0006 	-5.3601e-06 	1.95692e-06 30.0006 	-5.3601e-06 	1.95692e-06 30.0006 	-5.36011e-06 	1.95693e-06 30.0006 	-5.36011e-06 	1.95693e-06 30.0003 	-1.47003e-07 	1.96617e-06 30.0005 	-5.33548e-06 	1.94112e-06 30.0005 	-5.33548e-06 	1.94112e-06 30.0005 	-5.33548e-06 	1.94112e-06 30.0005 	-5.33549e-06 	1.94112e-06 30.0003 	-1.48203e-07 	1.96057e-06 30.0005 	-5.31544e-06 	1.91792e-06 30.0005 	-5.31545e-06 	1.91792e-06 30.0005 	-5.31545e-06 	1.91793e-06 30.0005 	-5.31545e-06 	1.91793e-06 30.0003 	-1.49397e-07 	1.94424e-06 30.0005 	-5.29982e-06 	1.88799e-06 30.0005 	-5.29982e-06 	1.88799e-06 30.0005 	-5.29982e-06 	1.88799e-06 30.0005 	-5.29983e-06 	1.88799e-06 30.0003 	-1.30908e-06 	2.179e-06 30.0005 	-5.28843e-06 	1.85189e-06 30.0005 	-5.28844e-06 	1.85189e-06 30.0005 	-5.28844e-06 	1.85189e-06 30.0005 	-5.28844e-06 	1.85189e-06 30.0003 	-1.51702e-07 	1.8823e-06 30.0005 	-5.2811e-06 	1.81006e-06 30.0005 	-5.2811e-06 	1.81006e-06 30.0005 	-5.28111e-06 	1.81006e-06 30.0005 	-5.28111e-06 	1.81006e-06 30.0003 	-1.52798e-07 	1.83818e-06 30.0005 	-5.27763e-06 	1.76313e-06 30.0005 	-5.27763e-06 	1.76314e-06 30.0005 	-5.27763e-06 	1.76314e-06 30.0005 	-5.27764e-06 	1.76314e-06 30.0003 	-1.34826e-06 	2.04408e-06 30.0005 	-5.27776e-06 	1.71159e-06 30.0005 	-5.27777e-06 	1.7116e-06 30.0005 	-5.27777e-06 	1.7116e-06 30.0005 	-5.27777e-06 	1.7116e-06 30.0003 	-1.3683e-06 	1.98424e-06 30.0005 	-5.28125e-06 	1.65596e-06 30.0005 	-5.28126e-06 	1.65596e-06 30.0005 	-5.28126e-06 	1.65596e-06 30.0005 	-5.28126e-06 	1.65596e-06 30.0002 	-1.55953e-07 	1.66281e-06 30.0005 	-5.28801e-06 	1.59664e-06 30.0005 	-5.28801e-06 	1.59664e-06 30.0005 	-5.28801e-06 	1.59665e-06 30.0005 	-5.28802e-06 	1.59665e-06 30.0002 	-1.56991e-07 	1.59256e-06 30.0004 	-5.29794e-06 	1.53412e-06 30.0004 	-5.29794e-06 	1.53412e-06 30.0004 	-5.29795e-06 	1.53412e-06 30.0004 	-5.29795e-06 	1.53412e-06 30.0002 	-1.58058e-07 	1.5177e-06 30.0004 	-5.31086e-06 	1.46886e-06 30.0004 	-5.31087e-06 	1.46886e-06 30.0004 	-5.31087e-06 	1.46886e-06 30.0004 	-5.31087e-06 	1.46886e-06 30.0002 	-1.47991e-06 	1.69062e-06 30.0004 	-5.32638e-06 	1.4014e-06 30.0004 	-5.32639e-06 	1.4014e-06 30.0004 	-5.32639e-06 	1.4014e-06 30.0004 	-5.32639e-06 	1.4014e-06 30.0002 	-1.51442e-06 	1.60713e-06 30.0004 	-5.3442e-06 	1.33215e-06 30.0004 	-5.3442e-06 	1.33215e-06 30.0004 	-5.34421e-06 	1.33215e-06 30.0004 	-5.34421e-06 	1.33215e-06 30.0002 	-1.61248e-07 	1.27187e-06 30.0004 	-5.36415e-06 	1.26144e-06 30.0004 	-5.36415e-06 	1.26144e-06 30.0004 	-5.36415e-06 	1.26144e-06 30.0004 	-5.36415e-06 	1.26144e-06 30.0002 	-1.58971e-06 	1.4325e-06 30.0004 	-5.38595e-06 	1.18976e-06 30.0004 	-5.38595e-06 	1.18976e-06 30.0004 	-5.38595e-06 	1.18977e-06 30.0004 	-5.38596e-06 	1.18977e-06 30.0002 	-1.63018e-06 	1.34242e-06 30.0004 	-5.40953e-06 	1.11743e-06 30.0004 	-5.40953e-06 	1.11743e-06 30.0004 	-5.40954e-06 	1.11744e-06 30.0004 	-5.40954e-06 	1.11744e-06 30.0002 	-1.64214e-07 	1.00609e-06 30.0004 	-5.43458e-06 	1.04476e-06 30.0004 	-5.43458e-06 	1.04476e-06 30.0004 	-5.43458e-06 	1.04476e-06 30.0004 	-5.43458e-06 	1.04476e-06 30.0002 	-1.65137e-07 	9.15616e-07 30.0004 	-5.46021e-06 	9.72223e-07 30.0004 	-5.46021e-06 	9.72224e-07 30.0004 	-5.46021e-06 	9.72224e-07 30.0004 	-5.46021e-06 	9.72224e-07 30.0002 	-1.66031e-07 	8.24993e-07 30.0004 	-5.48623e-06 	8.99444e-07 30.0004 	-5.48623e-06 	8.99445e-07 30.0004 	-5.48623e-06 	8.99445e-07 30.0004 	-5.48623e-06 	8.99445e-07 30.0002 	-1.80702e-06 	9.75433e-07 30.0004 	-5.51298e-06 	8.25915e-07 30.0004 	-5.51299e-06 	8.25915e-07 30.0004 	-5.51299e-06 	8.25916e-07 30.0004 	-5.51299e-06 	8.25916e-07 30.0002 	-1.67712e-07 	6.43627e-07 30.0003 	-5.5427e-06 	7.51956e-07 30.0003 	-5.5427e-06 	7.51956e-07 30.0003 	-5.5427e-06 	7.51957e-07 30.0003 	-5.54271e-06 	7.51957e-07 30.0002 	-1.68533e-07 	5.52633e-07 30.0003 	-5.57717e-06 	6.77414e-07 30.0003 	-5.57717e-06 	6.77414e-07 30.0003 	-5.57717e-06 	6.77414e-07 30.0003 	-5.57717e-06 	6.77414e-07 30.0002 	-1.95536e-06 	7.01329e-07 30.0003 	-5.614e-06 	6.04345e-07 30.0003 	-5.614e-06 	6.04345e-07 30.0003 	-5.61401e-06 	6.04345e-07 30.0003 	-5.61401e-06 	6.04345e-07 30.0002 	-2.00754e-06 	6.117e-07 30.0003 	-5.65006e-06 	5.34636e-07 30.0003 	-5.65006e-06 	5.34636e-07 30.0003 	-5.65006e-06 	5.34636e-07 30.0003 	-5.65007e-06 	5.34636e-07 30.0002 	-1.70994e-07 	2.80939e-07 30.0003 	-5.68115e-06 	4.67616e-07 30.0003 	-5.68115e-06 	4.67616e-07 30.0003 	-5.68115e-06 	4.67617e-07 30.0003 	-5.68115e-06 	4.67617e-07 30.0002 	-1.71815e-07 	1.97326e-07 30.0003 	-5.70955e-06 	4.03174e-07 30.0003 	-5.70956e-06 	4.03175e-07 30.0003 	-5.70956e-06 	4.03175e-07 30.0003 	-5.70956e-06 	4.03175e-07 30.0002 	-1.72607e-07 	1.16396e-07 30.0003 	-5.73771e-06 	3.3921e-07 30.0003 	-5.73771e-06 	3.3921e-07 30.0003 	-5.73771e-06 	3.3921e-07 30.0003 	-5.73771e-06 	3.3921e-07 30.0002 	-2.20077e-06 	2.74103e-07 30.0003 	-5.76567e-06 	2.75243e-07 30.0003 	-5.76567e-06 	2.75243e-07 30.0003 	-5.76567e-06 	2.75243e-07 30.0003 	-5.76567e-06 	2.75243e-07 30.0002 	-2.24769e-06 	1.96362e-07 30.0003 	-5.79241e-06 	2.10763e-07 30.0003 	-5.79241e-06 	2.10763e-07 30.0003 	-5.79241e-06 	2.10763e-07 30.0003 	-5.79241e-06 	2.10763e-07 30.0002 	-1.74748e-07 	-1.09146e-07 30.0003 	-5.82038e-06 	1.4876e-07 30.0003 	-5.82038e-06 	1.4876e-07 30.0003 	-5.82038e-06 	1.4876e-07 30.0003 	-5.82038e-06 	1.4876e-07 30.0002 	-2.34144e-06 	4.46797e-08 30.0003 	-5.84962e-06 	8.99647e-08 30.0003 	-5.84962e-06 	8.99647e-08 30.0003 	-5.84962e-06 	8.99647e-08 30.0003 	-5.84962e-06 	8.99647e-08 30.0002 	-2.38873e-06 	-2.90918e-08 30.0003 	-5.88002e-06 	3.4795e-08 30.0003 	-5.88002e-06 	3.4795e-08 30.0003 	-5.88002e-06 	3.4795e-08 30.0003 	-5.88002e-06 	3.4795e-08 30.0002 	-1.76717e-07 	-3.30769e-07 30.0003 	-5.91177e-06 	-1.70849e-08 30.0003 	-5.91177e-06 	-1.70849e-08 30.0003 	-5.91177e-06 	-1.70849e-08 30.0003 	-5.91177e-06 	-1.70849e-08 30.0002 	-1.77333e-07 	-4.01802e-07 30.0003 	-5.94486e-06 	-6.90627e-08 30.0003 	-5.94486e-06 	-6.90627e-08 30.0003 	-5.94486e-06 	-6.90627e-08 30.0003 	-5.94486e-06 	-6.90627e-08 30.0002 	-1.77926e-07 	-4.67075e-07 30.0003 	-5.9768e-06 	-1.23327e-07 30.0003 	-5.9768e-06 	-1.23327e-07 30.0003 	-5.9768e-06 	-1.23327e-07 30.0003 	-5.9768e-06 	-1.23327e-07 30.0002 	-2.58021e-06 	-3.01368e-07 30.0003 	-6.00455e-06 	-1.77968e-07 30.0003 	-6.00455e-06 	-1.77968e-07 30.0003 	-6.00455e-06 	-1.77968e-07 30.0003 	-6.00455e-06 	-1.77968e-07 30.0002 	-1.79085e-07 	-5.84883e-07 30.0003 	-6.02867e-06 	-2.29224e-07 30.0003 	-6.02867e-06 	-2.29224e-07 30.0003 	-6.02867e-06 	-2.29224e-07 30.0003 	-6.02867e-06 	-2.29224e-07 30.0002 	-1.79677e-07 	-6.42144e-07 30.0003 	-6.05189e-06 	-2.76189e-07 30.0003 	-6.05189e-06 	-2.76189e-07 30.0003 	-6.05189e-06 	-2.76189e-07 30.0003 	-6.05189e-06 	-2.76189e-07 30.0002 	-2.70824e-06 	-4.78968e-07 30.0003 	-6.07572e-06 	-3.19674e-07 30.0003 	-6.07572e-06 	-3.19674e-07 30.0003 	-6.07572e-06 	-3.19674e-07 30.0003 	-6.07572e-06 	-3.19674e-07 30.0002 	-2.74926e-06 	-5.34011e-07 30.0003 	-6.09997e-06 	-3.612e-07 30.0003 	-6.09997e-06 	-3.612e-07 30.0003 	-6.09997e-06 	-3.612e-07 30.0003 	-6.09997e-06 	-3.612e-07 30.0002 	-1.81379e-07 	-8.03779e-07 30.0003 	-6.12399e-06 	-4.01396e-07 30.0003 	-6.12398e-06 	-4.01396e-07 30.0003 	-6.12398e-06 	-4.01396e-07 30.0003 	-6.12398e-06 	-4.01396e-07 30.0001 	-1.8191e-07 	-8.53097e-07 30.0003 	-6.14735e-06 	-4.40391e-07 30.0003 	-6.14735e-06 	-4.40391e-07 30.0003 	-6.14734e-06 	-4.40391e-07 30.0003 	-6.14734e-06 	-4.40391e-07 30.0001 	-1.82427e-07 	-9.00306e-07 30.0003 	-6.16997e-06 	-4.78018e-07 30.0003 	-6.16997e-06 	-4.78018e-07 30.0003 	-6.16997e-06 	-4.78018e-07 30.0003 	-6.16997e-06 	-4.78018e-07 30.0001 	-2.9087e-06 	-7.31441e-07 30.0003 	-6.19173e-06 	-5.14234e-07 30.0003 	-6.19173e-06 	-5.14234e-07 30.0003 	-6.19173e-06 	-5.14234e-07 30.0003 	-6.19173e-06 	-5.14234e-07 30.0001 	-2.94656e-06 	-7.75567e-07 30.0003 	-6.21266e-06 	-5.48856e-07 30.0003 	-6.21266e-06 	-5.48856e-07 30.0003 	-6.21266e-06 	-5.48856e-07 30.0003 	-6.21265e-06 	-5.48856e-07 30.0001 	-1.83902e-07 	-1.02952e-06 30.0003 	-6.23273e-06 	-5.82073e-07 30.0003 	-6.23273e-06 	-5.82073e-07 30.0003 	-6.23273e-06 	-5.82073e-07 30.0003 	-6.23273e-06 	-5.82073e-07 30.0001 	-3.01953e-06 	-8.57456e-07 30.0003 	-6.25198e-06 	-6.13919e-07 30.0003 	-6.25198e-06 	-6.13919e-07 30.0003 	-6.25197e-06 	-6.13919e-07 30.0003 	-6.25197e-06 	-6.13919e-07 30.0001 	-3.05462e-06 	-8.95463e-07 30.0003 	-6.27045e-06 	-6.44446e-07 30.0003 	-6.27045e-06 	-6.44445e-07 30.0003 	-6.27044e-06 	-6.44445e-07 30.0003 	-6.27044e-06 	-6.44445e-07 30.0001 	-1.85288e-07 	-1.14083e-06 30.0003 	-6.28821e-06 	-6.73652e-07 30.0003 	-6.28821e-06 	-6.73652e-07 30.0003 	-6.28821e-06 	-6.73651e-07 30.0003 	-6.28821e-06 	-6.73651e-07 30.0001 	-1.85737e-07 	-1.17459e-06 30.0003 	-6.3052e-06 	-7.01472e-07 30.0003 	-6.3052e-06 	-7.01471e-07 30.0003 	-6.3052e-06 	-7.01471e-07 30.0003 	-6.30519e-06 	-7.01471e-07 30.0001 	-1.86176e-07 	-1.20667e-06 30.0003 	-6.32126e-06 	-7.2791e-07 30.0003 	-6.32126e-06 	-7.27909e-07 30.0003 	-6.32126e-06 	-7.27909e-07 30.0003 	-6.32126e-06 	-7.27909e-07 30.0001 	-3.18604e-06 	-1.03099e-06 30.0003 	-6.33651e-06 	-7.53019e-07 30.0003 	-6.3365e-06 	-7.53019e-07 30.0003 	-6.3365e-06 	-7.53018e-07 30.0003 	-6.3365e-06 	-7.53018e-07 30.0001 	-1.87023e-07 	-1.26595e-06 30.0003 	-6.35102e-06 	-7.76988e-07 30.0003 	-6.35102e-06 	-7.76988e-07 30.0003 	-6.35102e-06 	-7.76988e-07 30.0003 	-6.35101e-06 	-7.76988e-07 30.0001 	-1.87437e-07 	-1.29331e-06 30.0003 	-6.3648e-06 	-7.99862e-07 30.0003 	-6.3648e-06 	-7.99862e-07 30.0003 	-6.36479e-06 	-7.99861e-07 30.0003 	-6.36479e-06 	-7.99861e-07 30.0001 	-3.27543e-06 	-1.11604e-06 30.0003 	-6.37785e-06 	-8.21596e-07 30.0003 	-6.37785e-06 	-8.21595e-07 30.0003 	-6.37785e-06 	-8.21595e-07 30.0003 	-6.37784e-06 	-8.21595e-07 30.0001 	-3.30354e-06 	-1.14151e-06 30.0003 	-6.39017e-06 	-8.42032e-07 30.0003 	-6.39017e-06 	-8.42032e-07 30.0003 	-6.39017e-06 	-8.42032e-07 30.0003 	-6.39017e-06 	-8.42031e-07 30.0001 	-1.8861e-07 	-1.36686e-06 30.0003 	-6.40178e-06 	-8.61429e-07 30.0003 	-6.40178e-06 	-8.61429e-07 30.0003 	-6.40178e-06 	-8.61429e-07 30.0003 	-6.40178e-06 	-8.61428e-07 30.0001 	-1.88989e-07 	-1.38873e-06 30.0003 	-6.41269e-06 	-8.7987e-07 30.0003 	-6.41269e-06 	-8.79869e-07 30.0003 	-6.41269e-06 	-8.79869e-07 30.0003 	-6.41269e-06 	-8.79869e-07 30.0001 	-1.89359e-07 	-1.40939e-06 30.0003 	-6.42292e-06 	-8.97362e-07 30.0003 	-6.42292e-06 	-8.97362e-07 30.0003 	-6.42291e-06 	-8.97361e-07 30.0003 	-6.42291e-06 	-8.97361e-07 30.0001 	-3.40785e-06 	-1.23051e-06 30.0003 	-6.43247e-06 	-9.13948e-07 30.0003 	-6.43247e-06 	-9.13948e-07 30.0003 	-6.43247e-06 	-9.13947e-07 30.0003 	-6.43247e-06 	-9.13947e-07 30.0001 	-3.43198e-06 	-1.24984e-06 30.0003 	-6.44141e-06 	-9.29636e-07 30.0003 	-6.44141e-06 	-9.29635e-07 30.0003 	-6.44141e-06 	-9.29635e-07 30.0003 	-6.4414e-06 	-9.29635e-07 30.0001 	-1.90459e-07 	-1.46456e-06 30.0003 	-6.44971e-06 	-9.44489e-07 30.0003 	-6.4497e-06 	-9.44489e-07 30.0003 	-6.4497e-06 	-9.44488e-07 30.0003 	-6.4497e-06 	-9.44488e-07 30.0001 	-3.47809e-06 	-1.28533e-06 30.0003 	-6.45737e-06 	-9.58499e-07 30.0003 	-6.45737e-06 	-9.58499e-07 30.0003 	-6.45737e-06 	-9.58498e-07 30.0003 	-6.45737e-06 	-9.58498e-07 30.0001 	-3.50015e-06 	-1.30159e-06 30.0003 	-6.46446e-06 	-9.7179e-07 30.0003 	-6.46445e-06 	-9.7179e-07 30.0003 	-6.46445e-06 	-9.7179e-07 30.0003 	-6.46445e-06 	