# vtk DataFile Version 2.0
track0
ASCII
DATASET POLYDATA
POINTS 15780 float
-1.001 -0.05 0.0011
-1.0008 -0.05 0.0011
-1.0006 -0.05 0.0011
-1.0004 -0.05 0.0011
-1.0002 -0.05 0.0011
-1 -0.05 0.0011
-0.9875 -0.05 0.0011
-0.975 -0.05 0.0011
-0.9625 -0.05 0.0011
-0.95 -0.05 0.0011
-0.9375 -0.05 0.00109999
-0.925 -0.05 0.00109999
-0.9125 -0.05 0.00109999
-0.9 -0.05 0.00109999
-0.8875 -0.05 0.00109999
-0.875 -0.05 0.00109999
-0.8625 -0.05 0.00109999
-0.85 -0.05 0.00109999
-0.8375 -0.05 0.00109998
-0.825 -0.0500001 0.00109998
-0.8125 -0.0500001 0.00109998
-0.8 -0.0500001 0.00109998
-0.7875 -0.0500001 0.00109998
-0.775 -0.0500001 0.00109998
-0.7625 -0.0500001 0.00109998
-0.75 -0.0500001 0.00109998
-0.7375 -0.0500001 0.00109997
-0.725 -0.0500001 0.00109997
-0.7125 -0.0500001 0.00109997
-0.7 -0.0500001 0.00109997
-0.6875 -0.0500001 0.00109997
-0.675 -0.0500001 0.00109997
-0.6625 -0.0500001 0.00109997
-0.65 -0.0500001 0.00109996
-0.6375 -0.0500001 0.00109996
-0.625 -0.0500001 0.00109996
-0.6125 -0.0500001 0.00109996
-0.6 -0.0500001 0.00109996
-0.5875 -0.0500001 0.00109996
-0.575 -0.0500001 0.00109996
-0.5625 -0.0500001 0.00109996
-0.55 -0.0500001 0.00109995
-0.5375 -0.0500001 0.00109995
-0.525 -0.0500001 0.00109995
-0.5125 -0.0500001 0.00109995
-0.5 -0.0500001 0.00109995
-0.4875 -0.0500001 0.00109995
-0.475 -0.0500001 0.00109995
-0.4625 -0.0500001 0.00109994
-0.45 -0.0500002 0.00109994
-0.4375 -0.0500002 0.00109994
-0.425 -0.0500002 0.00109994
-0.4125 -0.0500002 0.00109994
-0.4 -0.0500002 0.00109994
-0.3875 -0.0500002 0.00109994
-0.375 -0.0500002 0.00109994
-0.3625 -0.0500002 0.00109993
-0.35 -0.0500002 0.00109993
-0.3375 -0.0500002 0.00109993
-0.325 -0.0500002 0.00109993
-0.3125 -0.0500002 0.00109993
-0.3 -0.0500002 0.00109993
-0.2875 -0.0500002 0.00109993
-0.275 -0.0500002 0.00109993
-0.2625 -0.0500002 0.00109992
-0.25 -0.0500002 0.00109992
-0.2375 -0.0500002 0.00109992
-0.225 -0.0500002 0.00109992
-0.2125 -0.0500002 0.00109992
-0.2 -0.0500002 0.00109992
-0.1875 -0.0500002 0.00109992
-0.175 -0.0500002 0.00109992
-0.1625 -0.0500002 0.00109991
-0.15 -0.0500002 0.00109991
-0.1375 -0.0500002 0.00109991
-0.125 -0.0500002 0.00109991
-0.1125 -0.0500002 0.00109991
-0.1 -0.0500002 0.00109991
-0.0875 -0.0500002 0.00109991
-0.075 -0.0500002 0.00109991
-0.0625 -0.0500002 0.00109991
-0.05 -0.0500003 0.00109991
-0.0375 -0.0500003 0.0010999
-0.025 -0.0500003 0.0010999
-0.0125 -0.0500003 0.0010999
2.10607e-13 -0.0500003 0.0010999
0.0125 -0.0500003 0.0010999
0.025 -0.0500003 0.0010999
0.0375 -0.0500003 0.0010999
0.05 -0.0500003 0.0010999
0.0625 -0.0500003 0.0010999
0.075 -0.0500003 0.0010999
0.0875 -0.0500003 0.0010999
0.1 -0.0500003 0.00109989
0.1125 -0.0500003 0.00109989
0.125 -0.0500003 0.00109989
0.1375 -0.0500003 0.00109989
0.15 -0.0500003 0.00109989
0.1625 -0.0500003 0.00109989
0.175 -0.0500003 0.00109989
0.1875 -0.0500003 0.00109989
0.2 -0.0500003 0.00109989
0.2125 -0.0500003 0.00109989
0.225 -0.0500003 0.00109989
0.2375 -0.0500003 0.00109989
0.25 -0.0500003 0.00109989
0.2625 -0.0500003 0.00109988
0.275 -0.0500003 0.00109988
0.2875 -0.0500003 0.00109988
0.3 -0.0500003 0.00109988
0.3125 -0.0500003 0.00109988
0.325 -0.0500003 0.00109988
0.3375 -0.0500003 0.00109988
0.35 -0.0500003 0.00109988
0.3625 -0.0500003 0.00109988
0.375 -0.0500003 0.00109988
0.3875 -0.0500003 0.00109988
0.4 -0.0500004 0.00109988
0.4125 -0.0500004 0.00109988
0.425 -0.0500004 0.00109988
0.4375 -0.0500004 0.00109988
0.45 -0.0500004 0.00109988
0.4625 -0.0500004 0.00109988
0.475 -0.0500004 0.00109988
0.4875 -0.0500004 0.00109988
0.5 -0.0500004 0.00109988
0.5125 -0.0500004 0.00109988
0.525 -0.0500004 0.00109988
0.5375 -0.0500004 0.00109988
0.55 -0.0500004 0.00109988
0.5625 -0.0500004 0.00109988
0.575 -0.0500004 0.00109987
0.5875 -0.0500004 0.00109987
0.6 -0.0500004 0.00109987
0.6125 -0.0500004 0.00109987
0.625 -0.0500004 0.00109987
0.6375 -0.0500004 0.00109987
0.65 -0.0500004 0.00109987
0.6625 -0.0500004 0.00109987
0.675 -0.0500004 0.00109987
0.6875 -0.0500004 0.00109987
0.7 -0.0500004 0.00109987
0.7125 -0.0500004 0.00109987
0.725 -0.0500004 0.00109987
0.7375 -0.0500004 0.00109987
0.75 -0.0500004 0.00109987
0.7625 -0.0500004 0.00109987
0.775 -0.0500004 0.00109987
0.7875 -0.0500004 0.00109987
0.8 -0.0500004 0.00109987
0.8125 -0.0500004 0.00109987
0.825 -0.0500004 0.00109987
0.8375 -0.0500004 0.00109987
0.85 -0.0500004 0.00109987
0.8625 -0.0500004 0.00109987
0.875 -0.0500004 0.00109987
0.8875 -0.0500004 0.00109987
0.9 -0.0500004 0.00109987
0.9125 -0.0500005 0.00109988
0.925 -0.0500005 0.00109988
0.9375 -0.0500005 0.00109988
0.95 -0.0500005 0.00109988
0.9625 -0.0500005 0.00109988
0.975 -0.0500005 0.00109988
0.9875 -0.0500005 0.00109988
1 -0.0500005 0.00109988
1.0125 -0.0500005 0.00109988
1.025 -0.0500005 0.00109988
1.0375 -0.0500005 0.00109988
1.05 -0.0500005 0.00109988
1.0625 -0.0500005 0.00109988
1.075 -0.0500005 0.00109988
1.0875 -0.0500005 0.00109988
1.1 -0.0500005 0.00109988
1.1125 -0.0500005 0.00109988
1.125 -0.0500005 0.00109988
1.1375 -0.0500005 0.00109988
1.15 -0.0500005 0.00109988
1.1625 -0.0500005 0.00109988
1.175 -0.0500005 0.00109988
1.1875 -0.0500005 0.00109988
1.2 -0.0500005 0.00109988
1.2125 -0.0500005 0.00109988
1.225 -0.0500005 0.00109988
1.2375 -0.0500005 0.00109989
1.25 -0.0500005 0.00109989
1.2625 -0.0500005 0.00109989
1.275 -0.0500005 0.00109989
1.2875 -0.0500005 0.00109989
1.3 -0.0500005 0.00109989
1.3125 -0.0500005 0.00109989
1.325 -0.0500005 0.00109989
1.3375 -0.0500005 0.00109989
1.35 -0.0500005 0.00109989
1.3625 -0.0500005 0.00109989
1.375 -0.0500005 0.00109989
1.3875 -0.0500005 0.00109989
1.4 -0.0500005 0.00109989
1.4125 -0.0500005 0.00109989
1.425 -0.0500005 0.00109989
1.4375 -0.0500005 0.0010999
1.45 -0.0500005 0.0010999
1.4625 -0.0500005 0.0010999
1.475 -0.0500005 0.0010999
1.4875 -0.0500005 0.0010999
1.5 -0.0500006 0.0010999
1.5125 -0.0500006 0.0010999
1.525 -0.0500006 0.0010999
1.5375 -0.0500006 0.0010999
1.55 -0.0500006 0.0010999
1.5625 -0.0500006 0.0010999
1.575 -0.0500006 0.0010999
1.5875 -0.0500006 0.0010999
1.6 -0.0500006 0.0010999
1.6125 -0.0500006 0.00109991
1.625 -0.0500006 0.00109991
1.6375 -0.0500006 0.00109991
1.65 -0.0500006 0.00109991
1.6625 -0.0500006 0.00109991
1.675 -0.0500006 0.00109991
1.6875 -0.0500006 0.00109991
1.7 -0.0500006 0.00109991
1.7125 -0.0500006 0.00109991
1.725 -0.0500006 0.00109991
1.7375 -0.0500006 0.00109991
1.75 -0.0500006 0.00109991
1.7625 -0.0500006 0.00109992
1.775 -0.0500006 0.00109992
1.7875 -0.0500006 0.00109992
1.8 -0.0500006 0.00109992
1.8125 -0.0500006 0.00109992
1.825 -0.0500006 0.00109992
1.8375 -0.0500006 0.00109992
1.85 -0.0500006 0.00109992
1.8625 -0.0500006 0.00109992
1.875 -0.0500006 0.00109992
1.8875 -0.0500006 0.00109992
1.9 -0.0500006 0.00109992
1.9125 -0.0500006 0.00109993
1.925 -0.0500006 0.00109993
1.9375 -0.0500006 0.00109993
1.95 -0.0500006 0.00109993
1.9625 -0.0500006 0.00109993
1.975 -0.0500006 0.00109993
1.9875 -0.0500006 0.00109993
2 -0.0500006 0.00109993
2.0125 -0.0500006 0.00109993
2.025 -0.0500006 0.00109993
2.0375 -0.0500006 0.00109993
2.05 -0.0500006 0.00109993
2.0625 -0.0500006 0.00109994
2.075 -0.0500006 0.00109994
2.0875 -0.0500006 0.00109994
2.1 -0.0500006 0.00109994
2.1125 -0.0500006 0.00109994
2.125 -0.0500006 0.00109994
2.1375 -0.0500006 0.00109994
2.15 -0.0500006 0.00109994
2.1625 -0.0500006 0.00109994
2.175 -0.0500007 0.00109994
2.1875 -0.0500007 0.00109994
2.2 -0.0500007 0.00109994
2.2125 -0.0500007 0.00109994
2.225 -0.0500007 0.00109995
2.2375 -0.0500007 0.00109995
2.25 -0.0500007 0.00109995
2.2625 -0.0500007 0.00109995
2.275 -0.0500007 0.00109995
2.2875 -0.0500007 0.00109995
2.3 -0.0500007 0.00109995
2.3125 -0.0500007 0.00109995
2.325 -0.0500007 0.00109995
2.3375 -0.0500007 0.00109995
2.35 -0.0500007 0.00109995
2.3625 -0.0500007 0.00109995
2.375 -0.0500007 0.00109995
2.3875 -0.0500007 0.00109996
2.4 -0.0500007 0.00109996
2.4125 -0.0500007 0.00109996
2.425 -0.0500007 0.00109996
2.4375 -0.0500007 0.00109996
2.45 -0.0500007 0.00109996
2.4625 -0.0500007 0.00109996
2.475 -0.0500007 0.00109996
2.4875 -0.0500007 0.00109996
2.5 -0.0500007 0.00109996
2.5125 -0.0500007 0.00109996
2.525 -0.0500007 0.00109996
2.5375 -0.0500007 0.00109996
2.55 -0.0500007 0.00109996
2.5625 -0.0500007 0.00109997
2.575 -0.0500007 0.00109997
2.5875 -0.0500007 0.00109997
2.6 -0.0500007 0.00109997
2.6125 -0.0500007 0.00109997
2.625 -0.0500007 0.00109997
2.6375 -0.0500007 0.00109997
2.65 -0.0500007 0.00109997
2.6625 -0.0500007 0.00109997
2.675 -0.0500007 0.00109997
2.6875 -0.0500007 0.00109997
2.7 -0.0500007 0.00109997
2.7125 -0.0500007 0.00109997
2.725 -0.0500007 0.00109997
2.7375 -0.0500007 0.00109997
2.75 -0.0500007 0.00109997
2.7625 -0.0500007 0.00109998
2.775 -0.0500007 0.00109998
2.7875 -0.0500007 0.00109998
2.8 -0.0500007 0.00109998
2.8125 -0.0500007 0.00109998
2.825 -0.0500007 0.00109998
2.8375 -0.0500007 0.00109998
2.85 -0.0500007 0.00109998
2.8625 -0.0500008 0.00109998
2.875 -0.0500008 0.00109998
2.8875 -0.0500008 0.00109998
2.9 -0.0500008 0.00109998
2.9125 -0.0500008 0.00109998
2.925 -0.0500008 0.00109998
2.9375 -0.0500008 0.00109998
2.95 -0.0500008 0.00109998
2.9625 -0.0500008 0.00109998
2.975 -0.0500008 0.00109998
2.9875 -0.0500008 0.00109998
3 -0.0500008 0.00109998
3.0125 -0.0500008 0.00109999
3.025 -0.0500008 0.00109999
3.0375 -0.0500008 0.00109999
3.05 -0.0500008 0.00109999
3.0625 -0.0500008 0.00109999
3.075 -0.0500008 0.00109999
3.0875 -0.0500008 0.00109999
3.1 -0.0500008 0.00109999
3.1125 -0.0500008 0.00109999
3.125 -0.0500008 0.00109999
3.1375 -0.0500008 0.00109999
3.15 -0.0500008 0.00109999
3.1625 -0.0500008 0.00109999
3.175 -0.0500008 0.00109999
3.1875 -0.0500008 0.00109999
3.2 -0.0500008 0.00109999
3.2125 -0.0500008 0.00109999
3.225 -0.0500008 0.00109999
3.2375 -0.0500008 0.00109999
3.25 -0.0500008 0.00109999
3.2625 -0.0500008 0.00109999
3.275 -0.0500008 0.00109999
3.2875 -0.0500008 0.00109999
3.3 -0.0500008 0.00109999
3.3125 -0.0500008 0.00109999
3.325 -0.0500008 0.00109999
3.3375 -0.0500008 0.00109999
3.35 -0.0500008 0.0011
3.3625 -0.0500008 0.0011
[...]
POINT_DATA 15780
 FIELD attributes 1
U 3 15780 float
30.0002 	-7.01807e-06 	-6.30588e-06 30.0002 	-6.84358e-06 	-6.51455e-06 30.0002 	-6.66909e-06 	-6.72321e-06 30.0002 	-6.4946e-06 	-6.93188e-06 30.0002 	-6.32012e-06 	-7.14055e-06 30.0002 	-6.14563e-06 	-7.34922e-06 30.0004 	-1.23855e-05 	-1.26099e-06 30.0004 	-1.23855e-05 	-1.26099e-06 30.0004 	-1.23855e-05 	-1.26099e-06 30.0004 	-1.23855e-05 	-1.26098e-06 30.0002 	-7.07014e-08 	-6.84367e-06 30.0005 	-1.07094e-05 	-1.68703e-06 30.0005 	-1.07094e-05 	-1.68703e-06 30.0005 	-1.07094e-05 	-1.68703e-06 30.0005 	-1.07094e-05 	-1.68703e-06 30.0002 	-7.24051e-08 	-6.59608e-06 30.0005 	-9.95891e-06 	-2.08021e-06 30.0005 	-9.9589e-06 	-2.08021e-06 30.0005 	-9.95889e-06 	-2.0802e-06 30.0005 	-9.95888e-06 	-2.0802e-06 30.0003 	-4.59332e-06 	-6.24726e-06 30.0005 	-9.69218e-06 	-2.34893e-06 30.0005 	-9.69217e-06 	-2.34893e-06 30.0005 	-9.69216e-06 	-2.34893e-06 30.0005 	-9.69215e-06 	-2.34893e-06 30.0003 	-7.60437e-08 	-6.57616e-06 30.0005 	-9.52404e-06 	-2.4978e-06 30.0005 	-9.52403e-06 	-2.4978e-06 30.0005 	-9.52403e-06 	-2.4978e-06 30.0005 	-9.52402e-06 	-2.49779e-06 30.0003 	-7.78223e-08 	-6.52627e-06 30.0005 	-9.38771e-06 	-2.55605e-06 30.0005 	-9.3877e-06 	-2.55604e-06 30.0005 	-9.38769e-06 	-2.55604e-06 30.0005 	-9.38768e-06 	-2.55604e-06 30.0003 	-4.2672e-06 	-6.08529e-06 30.0005 	-9.28031e-06 	-2.55828e-06 30.0005 	-9.2803e-06 	-2.55827e-06 30.0005 	-9.28029e-06 	-2.55827e-06 30.0005 	-9.28028e-06 	-2.55827e-06 30.0003 	-4.19961e-06 	-5.97789e-06 30.0006 	-9.18815e-06 	-2.53041e-06 30.0006 	-9.18814e-06 	-2.53041e-06 30.0006 	-9.18814e-06 	-2.5304e-06 30.0006 	-9.18813e-06 	-2.5304e-06 30.0003 	-8.31741e-08 	-6.20127e-06 30.0006 	-9.09812e-06 	-2.48116e-06 30.0006 	-9.09811e-06 	-2.48116e-06 30.0006 	-9.0981e-06 	-2.48116e-06 30.0006 	-9.09809e-06 	-2.48116e-06 30.0003 	-8.49395e-08 	-6.05424e-06 30.0006 	-9.00569e-06 	-2.41359e-06 30.0006 	-9.00568e-06 	-2.41359e-06 30.0006 	-9.00567e-06 	-2.41359e-06 30.0006 	-9.00566e-06 	-2.41359e-06 30.0003 	-8.67049e-08 	-5.88782e-06 30.0006 	-8.90957e-06 	-2.32971e-06 30.0006 	-8.90956e-06 	-2.32971e-06 30.0006 	-8.90956e-06 	-2.32971e-06 30.0006 	-8.90955e-06 	-2.3297e-06 30.0003 	-3.93826e-06 	-5.36347e-06 30.0006 	-8.80956e-06 	-2.23273e-06 30.0006 	-8.80955e-06 	-2.23273e-06 30.0006 	-8.80954e-06 	-2.23273e-06 30.0006 	-8.80954e-06 	-2.23272e-06 30.0003 	-3.86449e-06 	-5.16476e-06 30.0006 	-8.70532e-06 	-2.12412e-06 30.0006 	-8.70531e-06 	-2.12412e-06 30.0006 	-8.7053e-06 	-2.12412e-06 30.0006 	-8.70529e-06 	-2.12412e-06 30.0003 	-9.20022e-08 	-5.28458e-06 30.0006 	-8.59712e-06 	-2.00507e-06 30.0006 	-8.59712e-06 	-2.00506e-06 30.0006 	-8.59711e-06 	-2.00506e-06 30.0006 	-8.5971e-06 	-2.00506e-06 30.0003 	-3.70489e-06 	-4.7194e-06 30.0007 	-8.48577e-06 	-1.87667e-06 30.0007 	-8.48576e-06 	-1.87667e-06 30.0007 	-8.48576e-06 	-1.87667e-06 30.0007 	-8.48575e-06 	-1.87667e-06 30.0003 	-3.61979e-06 	-4.47431e-06 30.0007 	-8.37244e-06 	-1.73882e-06 30.0007 	-8.37244e-06 	-1.73882e-06 30.0007 	-8.37243e-06 	-1.73882e-06 30.0007 	-8.37242e-06 	-1.73882e-06 30.0004 	-9.72266e-08 	-4.54319e-06 30.0007 	-8.26083e-06 	-1.59802e-06 30.0007 	-8.26082e-06 	-1.59802e-06 30.0007 	-8.26082e-06 	-1.59802e-06 30.0007 	-8.26081e-06 	-1.59802e-06 30.0004 	-9.8948e-08 	-4.27124e-06 30.0007 	-8.14883e-06 	-1.46322e-06 30.0007 	-8.14882e-06 	-1.46322e-06 30.0007 	-8.14882e-06 	-1.46322e-06 30.0007 	-8.14882e-06 	-1.46322e-06 30.0004 	-1.00676e-07 	-3.98927e-06 30.0007 	-8.02077e-06 	-1.32071e-06 30.0007 	-8.02076e-06 	-1.32071e-06 30.0007 	-8.02076e-06 	-1.32071e-06 30.0007 	-8.02075e-06 	-1.32071e-06 30.0004 	-3.2514e-06 	-3.37796e-06 30.0007 	-7.88198e-06 	-1.16799e-06 30.0007 	-7.88198e-06 	-1.16799e-06 30.0007 	-7.88198e-06 	-1.16799e-06 30.0007 	-7.88197e-06 	-1.16799e-06 30.0004 	-1.04102e-07 	-3.40288e-06 30.0007 	-7.74606e-06 	-1.00786e-06 30.0007 	-7.74605e-06 	-1.00786e-06 30.0007 	-7.74605e-06 	-1.00786e-06 30.0007 	-7.74605e-06 	-1.00786e-06 30.0004 	-1.05804e-07 	-3.10327e-06 30.0007 	-7.61192e-06 	-8.41848e-07 30.0007 	-7.61192e-06 	-8.41847e-07 30.0007 	-7.61192e-06 	-8.41847e-07 30.0007 	-7.61192e-06 	-8.41847e-07 30.0004 	-2.93223e-06 	-2.48789e-06 30.0007 	-7.47616e-06 	-6.70194e-07 30.0007 	-7.47616e-06 	-6.70194e-07 30.0007 	-7.47616e-06 	-6.70194e-07 30.0007 	-7.47615e-06 	-6.70193e-07 30.0004 	-2.82575e-06 	-2.18313e-06 30.0007 	-7.344e-06 	-4.9704e-07 30.0007 	-7.344e-06 	-4.97039e-07 30.0007 	-7.344e-06 	-4.97039e-07 30.0007 	-7.344e-06 	-4.97039e-07 30.0004 	-1.10874e-07 	-2.17111e-06 30.0007 	-7.2162e-06 	-3.17312e-07 30.0007 	-7.21619e-06 	-3.17312e-07 30.0007 	-7.21619e-06 	-3.17312e-07 30.0007 	-7.21619e-06 	-3.17312e-07 30.0004 	-1.12546e-07 	-1.85337e-06 30.0007 	-7.09946e-06 	-1.38208e-07 30.0007 	-7.09946e-06 	-1.38208e-07 30.0007 	-7.09946e-06 	-1.38208e-07 30.0007 	-7.09946e-06 	-1.38208e-07 30.0004 	-1.14206e-07 	-1.54903e-06 30.0007 	-6.98614e-06 	4.08578e-08 30.0007 	-6.98614e-06 	4.08578e-08 30.0007 	-6.98614e-06 	4.08578e-08 30.0007 	-6.98614e-06 	4.08578e-08 30.0004 	-2.43928e-06 	-9.58518e-07 30.0007 	-6.87256e-06 	2.14676e-07 30.0007 	-6.87256e-06 	2.14676e-07 30.0007 	-6.87256e-06 	2.14676e-07 30.0007 	-6.87256e-06 	2.14676e-07 30.0004 	-2.34767e-06 	-6.82317e-07 30.0007 	-6.75435e-06 	3.90723e-07 30.0007 	-6.75435e-06 	3.90723e-07 30.0007 	-6.75435e-06 	3.90723e-07 30.0007 	-6.75435e-06 	3.90723e-07 30.0004 	-1.1914e-07 	-7.09775e-07 30.0007 	-6.6438e-06 	5.64371e-07 30.0007 	-6.6438e-06 	5.64372e-07 30.0007 	-6.6438e-06 	5.64372e-07 30.0007 	-6.6438e-06 	5.64372e-07 30.0004 	-2.16729e-06 	-1.45461e-07 30.0007 	-6.53683e-06 	7.27398e-07 30.0007 	-6.53683e-06 	7.27398e-07 30.0007 	-6.53683e-06 	7.27398e-07 30.0007 	-6.53683e-06 	7.27399e-07 30.0004 	-2.08162e-06 	1.13818e-07 30.0007 	-6.43153e-06 	8.78842e-07 30.0007 	-6.43153e-06 	8.78842e-07 30.0007 	-6.43154e-06 	8.78842e-07 30.0007 	-6.43154e-06 	8.78843e-07 30.0004 	-1.24035e-07 	7.05724e-08 30.0007 	-6.3239e-06 	1.01779e-06 30.0007 	-6.3239e-06 	1.01779e-06 30.0007 	-6.32391e-06 	1.01779e-06 30.0007 	-6.32391e-06 	1.01779e-06 30.0004 	-1.25615e-07 	3.15801e-07 30.0007 	-6.21755e-06 	1.14062e-06 30.0007 	-6.21755e-06 	1.14062e-06 30.0007 	-6.21755e-06 	1.14062e-06 30.0007 	-6.21755e-06 	1.14062e-06 30.0004 	-1.27206e-07 	5.45518e-07 30.0007 	-6.1163e-06 	1.25632e-06 30.0007 	-6.1163e-06 	1.25632e-06 30.0007 	-6.11631e-06 	1.25632e-06 30.0007 	-6.11631e-06 	1.25632e-06 30.0004 	-1.76482e-06 	1.03206e-06 30.0007 	-6.0236e-06 	1.37127e-06 30.0007 	-6.0236e-06 	1.37127e-06 30.0007 	-6.0236e-06 	1.37127e-06 30.0007 	-6.02361e-06 	1.37127e-06 30.0004 	-1.30323e-07 	9.36935e-07 30.0007 	-5.94394e-06 	1.4885e-06 30.0007 	-5.94395e-06 	1.4885e-06 30.0007 	-5.94395e-06 	1.4885e-06 30.0007 	-5.94395e-06 	1.4885e-06 30.0004 	-1.31825e-07 	1.10455e-06 30.0007 	-5.87275e-06 	1.59289e-06 30.0007 	-5.87275e-06 	1.59289e-06 30.0007 	-5.87275e-06 	1.59289e-06 30.0007 	-5.87276e-06 	1.59289e-06 30.0004 	-1.59196e-06 	1.53875e-06 30.0007 	-5.80316e-06 	1.67931e-06 30.0007 	-5.80316e-06 	1.67931e-06 30.0007 	-5.80316e-06 	1.67931e-06 30.0007 	-5.80317e-06 	1.67932e-06 30.0003 	-1.54475e-06 	1.6782e-06 30.0007 	-5.73505e-06 	1.7501e-06 30.0007 	-5.73506e-06 	1.7501e-06 30.0007 	-5.73506e-06 	1.75011e-06 30.0007 	-5.73506e-06 	1.75011e-06 30.0003 	-1.36548e-07 	1.52472e-06 30.0006 	-5.66992e-06 	1.8098e-06 30.0006 	-5.66993e-06 	1.80981e-06 30.0006 	-5.66993e-06 	1.80981e-06 30.0006 	-5.66993e-06 	1.80981e-06 30.0003 	-1.38111e-07 	1.63227e-06 30.0006 	-5.60987e-06 	1.85994e-06 30.0006 	-5.60987e-06 	1.85994e-06 30.0006 	-5.60987e-06 	1.85994e-06 30.0006 	-5.60988e-06 	1.85994e-06 30.0003 	-1.39592e-07 	1.72399e-06 30.0006 	-5.55559e-06 	1.90043e-06 30.0006 	-5.5556e-06 	1.90043e-06 30.0006 	-5.5556e-06 	1.90043e-06 30.0006 	-5.55561e-06 	1.90043e-06 30.0003 	-1.38947e-06 	2.07102e-06 30.0006 	-5.50679e-06 	1.93109e-06 30.0006 	-5.50679e-06 	1.93109e-06 30.0006 	-5.5068e-06 	1.9311e-06 30.0006 	-5.5068e-06 	1.9311e-06 30.0003 	-1.36245e-06 	2.13095e-06 30.0006 	-5.46301e-06 	1.95183e-06 30.0006 	-5.46302e-06 	1.95183e-06 30.0006 	-5.46302e-06 	1.95183e-06 30.0006 	-5.46303e-06 	1.95183e-06 30.0003 	-1.43638e-07 	1.90826e-06 30.0006 	-5.4242e-06 	1.96277e-06 30.0006 	-5.4242e-06 	1.96278e-06 30.0006 	-5.42421e-06 	1.96278e-06 30.0006 	-5.42421e-06 	1.96278e-06 30.0003 	-1.32405e-06 	2.20765e-06 30.0006 	-5.39026e-06 	1.96431e-06 30.0006 	-5.39027e-06 	1.96431e-06 30.0006 	-5.39027e-06 	1.96431e-06 30.0006 	-5.39027e-06 	1.96431e-06 30.0003 	-1.31228e-06 	2.22553e-06 30.0006 	-5.3611e-06 	1.95691e-06 30.0006 	-5.3611e-06 	1.95692e-06 30.0006 	-5.36111e-06 	1.95692e-06 30.0006 	-5.36111e-06 	1.95692e-06 30.0003 	-1.47524e-07 	1.96617e-06 30.0005 	-5.33658e-06 	1.94112e-06 30.0005 	-5.33658e-06 	1.94112e-06 30.0005 	-5.33659e-06 	1.94112e-06 30.0005 	-5.33659e-06 	1.94112e-06 30.0003 	-1.48775e-07 	1.96057e-06 30.0005 	-5.3166e-06 	1.91793e-06 30.0005 	-5.3166e-06 	1.91793e-06 30.0005 	-5.31661e-06 	1.91793e-06 30.0005 	-5.31661e-06 	1.91793e-06 30.0003 	-1.49997e-07 	1.94424e-06 30.0005 	-5.30103e-06 	1.888e-06 30.0005 	-5.30103e-06 	1.888e-06 30.0005 	-5.30104e-06 	1.888e-06 30.0005 	-5.30104e-06 	1.888e-06 30.0003 	-1.30973e-06 	2.179e-06 30.0005 	-5.28971e-06 	1.8519e-06 30.0005 	-5.28972e-06 	1.8519e-06 30.0005 	-5.28972e-06 	1.8519e-06 30.0005 	-5.28972e-06 	1.85191e-06 30.0003 	-1.52362e-07 	1.8823e-06 30.0005 	-5.28245e-06 	1.81008e-06 30.0005 	-5.28245e-06 	1.81008e-06 30.0005 	-5.28245e-06 	1.81008e-06 30.0005 	-5.28246e-06 	1.81008e-06 30.0003 	-1.53482e-07 	1.83817e-06 30.0005 	-5.27901e-06 	1.76316e-06 30.0005 	-5.27901e-06 	1.76316e-06 30.0005 	-5.27902e-06 	1.76316e-06 30.0005 	-5.27902e-06 	1.76317e-06 30.0003 	-1.34896e-06 	2.04408e-06 30.0005 	-5.2792e-06 	1.71163e-06 30.0005 	-5.2792e-06 	1.71163e-06 30.0005 	-5.27921e-06 	1.71163e-06 30.0005 	-5.27921e-06 	1.71163e-06 30.0003 	-1.36903e-06 	1.98424e-06 30.0005 	-5.28273e-06 	1.656e-06 30.0005 	-5.28274e-06 	1.656e-06 30.0005 	-5.28274e-06 	1.656e-06 30.0005 	-5.28274e-06 	1.656e-06 30.0002 	-1.56707e-07 	1.66281e-06 30.0005 	-5.28954e-06 	1.59669e-06 30.0005 	-5.28954e-06 	1.59669e-06 30.0005 	-5.28955e-06 	1.59669e-06 30.0005 	-5.28955e-06 	1.59669e-06 30.0002 	-1.57764e-07 	1.59256e-06 30.0004 	-5.2995e-06 	1.53416e-06 30.0004 	-5.2995e-06 	1.53416e-06 30.0004 	-5.2995e-06 	1.53416e-06 30.0004 	-5.29951e-06 	1.53416e-06 30.0002 	-1.58844e-07 	1.5177e-06 30.0004 	-5.31246e-06 	1.4689e-06 30.0004 	-5.31246e-06 	1.4689e-06 30.0004 	-5.31246e-06 	1.4689e-06 30.0004 	-5.31247e-06 	1.4689e-06 30.0002 	-1.4807e-06 	1.69063e-06 30.0004 	-5.32802e-06 	1.40145e-06 30.0004 	-5.32803e-06 	1.40145e-06 30.0004 	-5.32803e-06 	1.40145e-06 30.0004 	-5.32803e-06 	1.40146e-06 30.0002 	-1.51523e-06 	1.60714e-06 30.0004 	-5.34588e-06 	1.33221e-06 30.0004 	-5.34588e-06 	1.33221e-06 30.0004 	-5.34588e-06 	1.33221e-06 30.0004 	-5.34588e-06 	1.33221e-06 30.0002 	-1.62087e-07 	1.27188e-06 30.0004 	-5.36586e-06 	1.26149e-06 30.0004 	-5.36586e-06 	1.26149e-06 30.0004 	-5.36586e-06 	1.26149e-06 30.0004 	-5.36586e-06 	1.26149e-06 30.0002 	-1.59054e-06 	1.4325e-06 30.0004 	-5.3877e-06 	1.18982e-06 30.0004 	-5.3877e-06 	1.18982e-06 30.0004 	-5.3877e-06 	1.18982e-06 30.0004 	-5.38771e-06 	1.18982e-06 30.0002 	-1.63102e-06 	1.34243e-06 30.0004 	-5.41133e-06 	1.1175e-06 30.0004 	-5.41134e-06 	1.1175e-06 30.0004 	-5.41134e-06 	1.1175e-06 30.0004 	-5.41134e-06 	1.1175e-06 30.0002 	-1.65086e-07 	1.0061e-06 30.0004 	-5.43638e-06 	1.04482e-06 30.0004 	-5.43638e-06 	1.04482e-06 30.0004 	-5.43639e-06 	1.04482e-06 30.0004 	-5.43639e-06 	1.04482e-06 30.0002 	-1.66013e-07 	9.15631e-07 30.0004 	-5.46205e-06 	9.72281e-07 30.0004 	-5.46205e-06 	9.72281e-07 30.0004 	-5.46206e-06 	9.72281e-07 30.0004 	-5.46206e-06 	9.72282e-07 30.0002 	-1.66915e-07 	8.25008e-07 30.0004 	-5.48811e-06 	8.995e-07 30.0004 	-5.48811e-06 	8.99501e-07 30.0004 	-5.48811e-06 	8.99501e-07 30.0004 	-5.48812e-06 	8.99501e-07 30.0002 	-1.8079e-06 	9.7543e-07 30.0004 	-5.51491e-06 	8.25968e-07 30.0004 	-5.51492e-06 	8.25968e-07 30.0004 	-5.51492e-06 	8.25969e-07 30.0004 	-5.51492e-06 	8.25969e-07 30.0002 	-1.68621e-07 	6.43642e-07 30.0003 	-5.54466e-06 	7.52008e-07 30.0003 	-5.54466e-06 	7.52008e-07 30.0003 	-5.54466e-06 	7.52008e-07 30.0003 	-5.54466e-06 	7.52009e-07 30.0002 	-1.69435e-07 	5.52647e-07 30.0003 	-5.57915e-06 	6.77463e-07 30.0003 	-5.57915e-06 	6.77463e-07 30.0003 	-5.57915e-06 	6.77463e-07 30.0003 	-5.57915e-06 	6.77464e-07 30.0002 	-1.95627e-06 	7.01323e-07 30.0003 	-5.61603e-06 	6.04401e-07 30.0003 	-5.61603e-06 	6.04401e-07 30.0003 	-5.61603e-06 	6.04401e-07 30.0003 	-5.61603e-06 	6.04401e-07 30.0002 	-2.00845e-06 	6.11693e-07 30.0003 	-5.65204e-06 	5.34681e-07 30.0003 	-5.65204e-06 	5.34682e-07 30.0003 	-5.65204e-06 	5.34682e-07 30.0003 	-5.65204e-06 	5.34682e-07 30.0002 	-1.71911e-07 	2.80955e-07 30.0003 	-5.68314e-06 	4.67659e-07 30.0003 	-5.68314e-06 	4.67659e-07 30.0003 	-5.68314e-06 	4.6766e-07 30.0003 	-5.68314e-06 	4.6766e-07 30.0002 	-1.72734e-07 	1.9734e-07 30.0003 	-5.71157e-06 	4.03214e-07 30.0003 	-5.71157e-06 	4.03214e-07 30.0003 	-5.71157e-06 	4.03214e-07 30.0003 	-5.71157e-06 	4.03214e-07 30.0002 	-1.73533e-07 	1.16409e-07 30.0003 	-5.73974e-06 	3.39251e-07 30.0003 	-5.73974e-06 	3.39251e-07 30.0003 	-5.73974e-06 	3.39251e-07 30.0003 	-5.73974e-06 	3.39251e-07 30.0002 	-2.20169e-06 	2.74092e-07 30.0003 	-5.76772e-06 	2.75288e-07 30.0003 	-5.76772e-06 	2.75288e-07 30.0003 	-5.76772e-06 	2.75288e-07 30.0003 	-5.76772e-06 	2.75288e-07 30.0002 	-2.2486e-06 	1.96349e-07 30.0003 	-5.79438e-06 	2.10796e-07 30.0003 	-5.79438e-06 	2.10797e-07 30.0003 	-5.79438e-06 	2.10797e-07 30.0003 	-5.79438e-06 	2.10797e-07 30.0002 	-1.75655e-07 	-1.09141e-07 30.0003 	-5.82232e-06 	1.48782e-07 30.0003 	-5.82232e-06 	1.48782e-07 30.0003 	-5.82232e-06 	1.48782e-07 30.0003 	-5.82232e-06 	1.48782e-07 30.0002 	-2.34233e-06 	4.46598e-08 30.0003 	-5.85158e-06 	8.9988e-08 30.0003 	-5.85158e-06 	8.9988e-08 30.0003 	-5.85158e-06 	8.9988e-08 30.0003 	-5.85158e-06 	8.9988e-08 30.0002 	-2.38963e-06 	-2.91128e-08 30.0003 	-5.88199e-06 	3.48225e-08 30.0003 	-5.88199e-06 	3.48225e-08 30.0003 	-5.88199e-06 	3.48225e-08 30.0003 	-5.88199e-06 	3.48225e-08 30.0002 	-1.7761e-07 	-3.3077e-07 30.0003 	-5.91362e-06 	-1.70696e-08 30.0003 	-5.91362e-06 	-1.70696e-08 30.0003 	-5.91362e-06 	-1.70696e-08 30.0003 	-5.91362e-06 	-1.70696e-08 30.0002 	-1.78207e-07 	-4.01807e-07 30.0003 	-5.94675e-06 	-6.9052e-08 30.0003 	-5.94674e-06 	-6.9052e-08 30.0003 	-5.94674e-06 	-6.9052e-08 30.0003 	-5.94674e-06 	-6.9052e-08 30.0002 	-1.78805e-07 	-4.6708e-07 30.0003 	-5.97869e-06 	-1.23316e-07 30.0003 	-5.97869e-06 	-1.23316e-07 30.0003 	-5.97869e-06 	-1.23316e-07 30.0003 	-5.97869e-06 	-1.23316e-07 30.0002 	-2.58109e-06 	-3.01392e-07 30.0003 	-6.00646e-06 	-1.77959e-07 30.0003 	-6.00646e-06 	-1.77959e-07 30.0003 	-6.00646e-06 	-1.77959e-07 30.0003 	-6.00646e-06 	-1.77959e-07 30.0002 	-1.79976e-07 	-5.84894e-07 30.0003 	-6.03058e-06 	-2.29217e-07 30.0003 	-6.03058e-06 	-2.29217e-07 30.0003 	-6.03058e-06 	-2.29217e-07 30.0003 	-6.03058e-06 	-2.29217e-07 30.0002 	-1.80558e-07 	-6.42158e-07 30.0003 	-6.05382e-06 	-2.76182e-07 30.0003 	-6.05382e-06 	-2.76181e-07 30.0003 	-6.05382e-06 	-2.76181e-07 30.0003 	-6.05382e-06 	-2.76181e-07 30.0002 	-2.70915e-06 	-4.78994e-07 30.0003 	-6.07769e-06 	-3.19659e-07 30.0003 	-6.07769e-06 	-3.19659e-07 30.0003 	-6.07769e-06 	-3.19659e-07 30.0003 	-6.07769e-06 	-3.19659e-07 30.0002 	-2.75017e-06 	-5.34038e-07 30.0003 	-6.10184e-06 	-3.61196e-07 30.0003 	-6.10184e-06 	-3.61196e-07 30.0003 	-6.10184e-06 	-3.61196e-07 30.0003 	-6.10184e-06 	-3.61196e-07 30.0002 	-1.82279e-07 	-8.03797e-07 30.0003 	-6.12586e-06 	-4.01392e-07 30.0003 	-6.12586e-06 	-4.01392e-07 30.0003 	-6.12586e-06 	-4.01392e-07 30.0003 	-6.12586e-06 	-4.01392e-07 30.0001 	-1.82822e-07 	-8.53117e-07 30.0003 	-6.14926e-06 	-4.40386e-07 30.0003 	-6.14926e-06 	-4.40386e-07 30.0003 	-6.14926e-06 	-4.40386e-07 30.0003 	-6.14926e-06 	-4.40386e-07 30.0001 	-1.83359e-07 	-9.00327e-07 30.0003 	-6.17192e-06 	-4.78005e-07 30.0003 	-6.17192e-06 	-4.78005e-07 30.0003 	-6.17192e-06 	-4.78004e-07 30.0003 	-6.17191e-06 	-4.78004e-07 30.0001 	-2.90964e-06 	-7.31468e-07 30.0003 	-6.19372e-06 	-5.14217e-07 30.0003 	-6.19371e-06 	-5.14217e-07 30.0003 	-6.19371e-06 	-5.14217e-07 30.0003 	-6.19371e-06 	-5.14217e-07 30.0001 	-2.9475e-06 	-7.75595e-07 30.0003 	-6.21456e-06 	-5.48844e-07 30.0003 	-6.21456e-06 	-5.48844e-07 30.0003 	-6.21456e-06 	-5.48843e-07 30.0003 	-6.21455e-06 	-5.48843e-07 30.0001 	-1.84845e-07 	-1.02954e-06 30.0003 	-6.2346e-06 	-5.82063e-07 30.0003 	-6.2346e-06 	-5.82063e-07 30.0003 	-6.2346e-06 	-5.82062e-07 30.0003 	-6.2346e-06 	-5.82062e-07 30.0001 	-3.02046e-06 	-8.57483e-07 30.0003 	-6.25388e-06 	-6.13902e-07 30.0003 	-6.25388e-06 	-6.13902e-07 30.0003 	-6.25388e-06 	-6.13902e-07 30.0003 	-6.25388e-06 	-6.13902e-07 30.0001 	-3.05555e-06 	-8.95489e-07 30.0003 	-6.27236e-06 	-6.44424e-07 30.0003 	-6.27236e-06 	-6.44424e-07 30.0003 	-6.27236e-06 	-6.44424e-07 30.0003 	-6.27236e-06 	-6.44424e-07 30.0001 	-1.86242e-07 	-1.14086e-06 30.0003 	-6.29001e-06 	-6.73626e-07 30.0003 	-6.29001e-06 	-6.73626e-07 30.0003 	-6.29e-06 	-6.73626e-07 30.0003 	-6.29e-06 	-6.73626e-07 30.0001 	-1.86674e-07 	-1.17461e-06 30.0003 	-6.30702e-06 	-7.01444e-07 30.0003 	-6.30702e-06 	-7.01444e-07 30.0003 	-6.30702e-06 	-7.01444e-07 30.0003 	-6.30702e-06 	-7.01444e-07 30.0001 	-1.8712e-07 	-1.2067e-06 30.0003 	-6.3231e-06 	-7.27874e-07 30.0003 	-6.3231e-06 	-7.27874e-07 30.0003 	-6.3231e-06 	-7.27874e-07 30.0003 	-6.3231e-06 	-7.27874e-07 30.0001 	-3.18696e-06 	-1.03101e-06 30.0003 	-6.33836e-06 	-7.52985e-07 30.0003 	-6.33836e-06 	-7.52984e-07 30.0003 	-6.33836e-06 	-7.52984e-07 30.0003 	-6.33836e-06 	-7.52984e-07 30.0001 	-1.8798e-07 	-1.26598e-06 30.0003 	-6.35288e-06 	-7.76953e-07 30.0003 	-6.35287e-06 	-7.76952e-07 30.0003 	-6.35287e-06 	-7.76952e-07 30.0003 	-6.35287e-06 	-7.76952e-07 30.0001 	-1.88388e-07 	-1.29334e-06 30.0003 	-6.36669e-06 	-7.99823e-07 30.0003 	-6.36669e-06 	-7.99823e-07 30.0003 	-6.36669e-06 	-7.99822e-07 30.0003 	-6.36669e-06 	-7.99822e-07 30.0001 	-3.27636e-06 	-1.11606e-06 30.0003 	-6.37978e-06 	-8.2155e-07 30.0003 	-6.37978e-06 	-8.21549e-07 30.0003 	-6.37978e-06 	-8.21549e-07 30.0003 	-6.37978e-06 	-8.21549e-07 30.0001 	-3.30446e-06 	-1.14153e-06 30.0003 	-6.39203e-06 	-8.41986e-07 30.0003 	-6.39203e-06 	-8.41986e-07 30.0003 	-6.39203e-06 	-8.41986e-07 30.0003 	-6.39202e-06 	-8.41986e-07 30.0001 	-1.89577e-07 	-1.36688e-06 30.0003 	-6.40365e-06 	-8.61376e-07 30.0003 	-6.40364e-06 	-8.61376e-07 30.0003 	-6.40364e-06 	-8.61376e-07 30.0003 	-6.40364e-06 	-8.61376e-07 30.0001 	-1.89958e-07 	-1.38875e-06 30.0003 	-6.41459e-06 	-8.79813e-07 30.0003 	-6.41459e-06 	-8.79813e-07 30.0003 	-6.41459e-06 	-8.79813e-07 30.0003 	-6.41458e-06 	-8.79812e-07 30.0001 	-1.90338e-07 	-1.40941e-06 30.0003 	-6.42484e-06 	-8.97296e-07 30.0003 	-6.42484e-06 	-8.97296e-07 30.0003 	-6.42483e-06 	-8.97295e-07 30.0003 	-6.42483e-06 	-8.97295e-07 30.0001 	-3.40876e-06 	-1.23053e-06 30.0003 	-6.43442e-06 	-9.13881e-07 30.0003 	-6.43442e-06 	-9.1388e-07 30.0003 	-6.43441e-06 	-9.1388e-07 30.0003 	-6.43441e-06 	-9.1388e-07 30.0001 	-3.43288e-06 	-1.24986e-06 30.0003 	-6.44326e-06 	-9.29568e-07 30.0003 	-6.44326e-06 	-9.29568e-07 30.0003 	-6.44326e-06 	-9.29568e-07 30.0003 	-6.44326e-06 	-9.29567e-07 30.0001 	-1.91402e-07 	-1.46457e-06 30.0003 	-6.45151e-06 	-9.44423e-07 30.0003 	-6.45151e-06 	-9.44423e-07 30.0003 	-6.4515e-06 	-9.44422e-07 30.0003 	-6.4515e-06 	-9.44422e-07 30.0001 	-3.47893e-06 	-1.28535e-06 30.0003 	-6.45919e-06 	-9.58427e-07 30.0003 	-6.45918e-06 	-9.58426e-07 30.0003 	-6.45918e-06 	-9.58426e-07 30.0003 	-6.45918e-06 	-9.58426e-07 30.0001 	-3.50098e-06 	-1.30161e-06 30.0003 	-6.46626e-06 	-9.71717e-07 30.0003 	-6.46626e-06 	-9.71717e-07 30.0003 	-6.46626e-06 	-9.71716e-07 30.0003 	-6.46626e-06 	-9.71716e-07 30.0001 	-1.9241