# vtk DataFile Version 2.0
track0
ASCII
DATASET POLYDATA
POINTS 15780 float
-1.001 -0.05 0.0011
-1.0008 -0.05 0.0011
-1.0006 -0.05 0.0011
-1.0004 -0.05 0.0011
-1.0002 -0.05 0.0011
-1 -0.05 0.0011
-0.9875 -0.05 0.0011
-0.975 -0.05 0.0011
-0.9625 -0.05 0.0011
-0.95 -0.05 0.0011
-0.9375 -0.05 0.00109999
-0.925 -0.05 0.00109999
-0.9125 -0.05 0.00109999
-0.9 -0.05 0.00109999
-0.8875 -0.05 0.00109999
-0.875 -0.05 0.00109999
-0.8625 -0.05 0.00109999
-0.85 -0.05 0.00109999
-0.8375 -0.05 0.00109998
-0.825 -0.0500001 0.00109998
-0.8125 -0.0500001 0.00109998
-0.8 -0.0500001 0.00109998
-0.7875 -0.0500001 0.00109998
-0.775 -0.0500001 0.00109998
-0.7625 -0.0500001 0.00109998
-0.75 -0.0500001 0.00109998
-0.7375 -0.0500001 0.00109997
-0.725 -0.0500001 0.00109997
-0.7125 -0.0500001 0.00109997
-0.7 -0.0500001 0.00109997
-0.6875 -0.0500001 0.00109997
-0.675 -0.0500001 0.00109997
-0.6625 -0.0500001 0.00109997
-0.65 -0.0500001 0.00109996
-0.6375 -0.0500001 0.00109996
-0.625 -0.0500001 0.00109996
-0.6125 -0.0500001 0.00109996
-0.6 -0.0500001 0.00109996
-0.5875 -0.0500001 0.00109996
-0.575 -0.0500001 0.00109996
-0.5625 -0.0500001 0.00109996
-0.55 -0.0500001 0.00109995
-0.5375 -0.0500001 0.00109995
-0.525 -0.0500001 0.00109995
-0.5125 -0.0500001 0.00109995
-0.5 -0.0500001 0.00109995
-0.4875 -0.0500001 0.00109995
-0.475 -0.0500001 0.00109995
-0.4625 -0.0500001 0.00109994
-0.45 -0.0500002 0.00109994
-0.4375 -0.0500002 0.00109994
-0.425 -0.0500002 0.00109994
-0.4125 -0.0500002 0.00109994
-0.4 -0.0500002 0.00109994
-0.3875 -0.0500002 0.00109994
-0.375 -0.0500002 0.00109994
-0.3625 -0.0500002 0.00109993
-0.35 -0.0500002 0.00109993
-0.3375 -0.0500002 0.00109993
-0.325 -0.0500002 0.00109993
-0.3125 -0.0500002 0.00109993
-0.3 -0.0500002 0.00109993
-0.2875 -0.0500002 0.00109993
-0.275 -0.0500002 0.00109993
-0.2625 -0.0500002 0.00109992
-0.25 -0.0500002 0.00109992
-0.2375 -0.0500002 0.00109992
-0.225 -0.0500002 0.00109992
-0.2125 -0.0500002 0.00109992
-0.2 -0.0500002 0.00109992
-0.1875 -0.0500002 0.00109992
-0.175 -0.0500002 0.00109992
-0.1625 -0.0500002 0.00109991
-0.15 -0.0500002 0.00109991
-0.1375 -0.0500002 0.00109991
-0.125 -0.0500002 0.00109991
-0.1125 -0.0500002 0.00109991
-0.1 -0.0500002 0.00109991
-0.0875 -0.0500002 0.00109991
-0.075 -0.0500002 0.00109991
-0.0625 -0.0500002 0.00109991
-0.05 -0.0500003 0.00109991
-0.0375 -0.0500003 0.0010999
-0.025 -0.0500003 0.0010999
-0.0125 -0.0500003 0.0010999
2.10607e-13 -0.0500003 0.0010999
0.0125 -0.0500003 0.0010999
0.025 -0.0500003 0.0010999
0.0375 -0.0500003 0.0010999
0.05 -0.0500003 0.0010999
0.0625 -0.0500003 0.0010999
0.075 -0.0500003 0.0010999
0.0875 -0.0500003 0.0010999
0.1 -0.0500003 0.00109989
0.1125 -0.0500003 0.00109989
0.125 -0.0500003 0.00109989
0.1375 -0.0500003 0.00109989
0.15 -0.0500003 0.00109989
0.1625 -0.0500003 0.00109989
0.175 -0.0500003 0.00109989
0.1875 -0.0500003 0.00109989
0.2 -0.0500003 0.00109989
0.2125 -0.0500003 0.00109989
0.225 -0.0500003 0.00109989
0.2375 -0.0500003 0.00109989
0.25 -0.0500003 0.00109989
0.2625 -0.0500003 0.00109988
0.275 -0.0500003 0.00109988
0.2875 -0.0500003 0.00109988
0.3 -0.0500003 0.00109988
0.3125 -0.0500003 0.00109988
0.325 -0.0500003 0.00109988
0.3375 -0.0500003 0.00109988
0.35 -0.0500003 0.00109988
0.3625 -0.0500003 0.00109988
0.375 -0.0500003 0.00109988
0.3875 -0.0500003 0.00109988
0.4 -0.0500004 0.00109988
0.4125 -0.0500004 0.00109988
0.425 -0.0500004 0.00109988
0.4375 -0.0500004 0.00109988
0.45 -0.0500004 0.00109988
0.4625 -0.0500004 0.00109988
0.475 -0.0500004 0.00109988
0.4875 -0.0500004 0.00109988
0.5 -0.0500004 0.00109988
0.5125 -0.0500004 0.00109988
0.525 -0.0500004 0.00109988
0.5375 -0.0500004 0.00109988
0.55 -0.0500004 0.00109988
0.5625 -0.0500004 0.00109988
0.575 -0.0500004 0.00109987
0.5875 -0.0500004 0.00109987
0.6 -0.0500004 0.00109987
0.6125 -0.0500004 0.00109987
0.625 -0.0500004 0.00109987
0.6375 -0.0500004 0.00109987
0.65 -0.0500004 0.00109987
0.6625 -0.0500004 0.00109987
0.675 -0.0500004 0.00109987
0.6875 -0.0500004 0.00109987
0.7 -0.0500004 0.00109987
0.7125 -0.0500004 0.00109987
0.725 -0.0500004 0.00109987
0.7375 -0.0500004 0.00109987
0.75 -0.0500004 0.00109987
0.7625 -0.0500004 0.00109987
0.775 -0.0500004 0.00109987
0.7875 -0.0500004 0.00109987
0.8 -0.0500004 0.00109987
0.8125 -0.0500004 0.00109987
0.825 -0.0500004 0.00109987
0.8375 -0.0500004 0.00109987
0.85 -0.0500004 0.00109987
0.8625 -0.0500004 0.00109987
0.875 -0.0500004 0.00109987
0.8875 -0.0500004 0.00109987
0.9 -0.0500004 0.00109987
0.9125 -0.0500005 0.00109988
0.925 -0.0500005 0.00109988
0.9375 -0.0500005 0.00109988
0.95 -0.0500005 0.00109988
0.9625 -0.0500005 0.00109988
0.975 -0.0500005 0.00109988
0.9875 -0.0500005 0.00109988
1 -0.0500005 0.00109988
1.0125 -0.0500005 0.00109988
1.025 -0.0500005 0.00109988
1.0375 -0.0500005 0.00109988
1.05 -0.0500005 0.00109988
1.0625 -0.0500005 0.00109988
1.075 -0.0500005 0.00109988
1.0875 -0.0500005 0.00109988
1.1 -0.0500005 0.00109988
1.1125 -0.0500005 0.00109988
1.125 -0.0500005 0.00109988
1.1375 -0.0500005 0.00109988
1.15 -0.0500005 0.00109988
1.1625 -0.0500005 0.00109988
1.175 -0.0500005 0.00109988
1.1875 -0.0500005 0.00109988
1.2 -0.0500005 0.00109988
1.2125 -0.0500005 0.00109988
1.225 -0.0500005 0.00109988
1.2375 -0.0500005 0.00109989
1.25 -0.0500005 0.00109989
1.2625 -0.0500005 0.00109989
1.275 -0.0500005 0.00109989
1.2875 -0.0500005 0.00109989
1.3 -0.0500005 0.00109989
1.3125 -0.0500005 0.00109989
1.325 -0.0500005 0.00109989
1.3375 -0.0500005 0.00109989
1.35 -0.0500005 0.00109989
1.3625 -0.0500005 0.00109989
1.375 -0.0500005 0.00109989
1.3875 -0.0500005 0.00109989
1.4 -0.0500005 0.00109989
1.4125 -0.0500005 0.00109989
1.425 -0.0500005 0.00109989
1.4375 -0.0500005 0.0010999
1.45 -0.0500005 0.0010999
1.4625 -0.0500005 0.0010999
1.475 -0.0500005 0.0010999
1.4875 -0.0500005 0.0010999
1.5 -0.0500006 0.0010999
1.5125 -0.0500006 0.0010999
1.525 -0.0500006 0.0010999
1.5375 -0.0500006 0.0010999
1.55 -0.0500006 0.0010999
1.5625 -0.0500006 0.0010999
1.575 -0.0500006 0.0010999
1.5875 -0.0500006 0.0010999
1.6 -0.0500006 0.0010999
1.6125 -0.0500006 0.00109991
1.625 -0.0500006 0.00109991
1.6375 -0.0500006 0.00109991
1.65 -0.0500006 0.00109991
1.6625 -0.0500006 0.00109991
1.675 -0.0500006 0.00109991
1.6875 -0.0500006 0.00109991
1.7 -0.0500006 0.00109991
1.7125 -0.0500006 0.00109991
1.725 -0.0500006 0.00109991
1.7375 -0.0500006 0.00109991
1.75 -0.0500006 0.00109991
1.7625 -0.0500006 0.00109992
1.775 -0.0500006 0.00109992
1.7875 -0.0500006 0.00109992
1.8 -0.0500006 0.00109992
1.8125 -0.0500006 0.00109992
1.825 -0.0500006 0.00109992
1.8375 -0.0500006 0.00109992
1.85 -0.0500006 0.00109992
1.8625 -0.0500006 0.00109992
1.875 -0.0500006 0.00109992
1.8875 -0.0500006 0.00109992
1.9 -0.0500006 0.00109992
1.9125 -0.0500006 0.00109993
1.925 -0.0500006 0.00109993
1.9375 -0.0500006 0.00109993
1.95 -0.0500006 0.00109993
1.9625 -0.0500006 0.00109993
1.975 -0.0500006 0.00109993
1.9875 -0.0500006 0.00109993
2 -0.0500006 0.00109993
2.0125 -0.0500006 0.00109993
2.025 -0.0500006 0.00109993
2.0375 -0.0500006 0.00109993
2.05 -0.0500006 0.00109993
2.0625 -0.0500006 0.00109994
2.075 -0.0500006 0.00109994
2.0875 -0.0500006 0.00109994
2.1 -0.0500006 0.00109994
2.1125 -0.0500006 0.00109994
2.125 -0.0500006 0.00109994
2.1375 -0.0500006 0.00109994
2.15 -0.0500006 0.00109994
2.1625 -0.0500006 0.00109994
2.175 -0.0500007 0.00109994
2.1875 -0.0500007 0.00109994
2.2 -0.0500007 0.00109994
2.2125 -0.0500007 0.00109994
2.225 -0.0500007 0.00109995
2.2375 -0.0500007 0.00109995
2.25 -0.0500007 0.00109995
2.2625 -0.0500007 0.00109995
2.275 -0.0500007 0.00109995
2.2875 -0.0500007 0.00109995
2.3 -0.0500007 0.00109995
2.3125 -0.0500007 0.00109995
2.325 -0.0500007 0.00109995
2.3375 -0.0500007 0.00109995
2.35 -0.0500007 0.00109995
2.3625 -0.0500007 0.00109995
2.375 -0.0500007 0.00109995
2.3875 -0.0500007 0.00109996
2.4 -0.0500007 0.00109996
2.4125 -0.0500007 0.00109996
2.425 -0.0500007 0.00109996
2.4375 -0.0500007 0.00109996
2.45 -0.0500007 0.00109996
2.4625 -0.0500007 0.00109996
2.475 -0.0500007 0.00109996
2.4875 -0.0500007 0.00109996
2.5 -0.0500007 0.00109996
2.5125 -0.0500007 0.00109996
2.525 -0.0500007 0.00109996
2.5375 -0.0500007 0.00109996
2.55 -0.0500007 0.00109996
2.5625 -0.0500007 0.00109997
2.575 -0.0500007 0.00109997
2.5875 -0.0500007 0.00109997
2.6 -0.0500007 0.00109997
2.6125 -0.0500007 0.00109997
2.625 -0.0500007 0.00109997
2.6375 -0.0500007 0.00109997
2.65 -0.0500007 0.00109997
2.6625 -0.0500007 0.00109997
2.675 -0.0500007 0.00109997
2.6875 -0.0500007 0.00109997
2.7 -0.0500007 0.00109997
2.7125 -0.0500007 0.00109997
2.725 -0.0500007 0.00109997
2.7375 -0.0500007 0.00109997
2.75 -0.0500007 0.00109997
2.7625 -0.0500007 0.00109998
2.775 -0.0500007 0.00109998
2.7875 -0.0500007 0.00109998
2.8 -0.0500007 0.00109998
2.8125 -0.0500007 0.00109998
2.825 -0.0500007 0.00109998
2.8375 -0.0500007 0.00109998
2.85 -0.0500007 0.00109998
2.8625 -0.0500008 0.00109998
2.875 -0.0500008 0.00109998
2.8875 -0.0500008 0.00109998
2.9 -0.0500008 0.00109998
2.9125 -0.0500008 0.00109998
2.925 -0.0500008 0.00109998
2.9375 -0.0500008 0.00109998
2.95 -0.0500008 0.00109998
2.9625 -0.0500008 0.00109998
2.975 -0.0500008 0.00109998
2.9875 -0.0500008 0.00109998
3 -0.0500008 0.00109998
3.0125 -0.0500008 0.00109999
3.025 -0.0500008 0.00109999
3.0375 -0.0500008 0.00109999
3.05 -0.0500008 0.00109999
3.0625 -0.0500008 0.00109999
3.075 -0.0500008 0.00109999
3.0875 -0.0500008 0.00109999
3.1 -0.0500008 0.00109999
3.1125 -0.0500008 0.00109999
3.125 -0.0500008 0.00109999
3.1375 -0.0500008 0.00109999
3.15 -0.0500008 0.00109999
3.1625 -0.0500008 0.00109999
3.175 -0.0500008 0.00109999
3.1875 -0.0500008 0.00109999
3.2 -0.0500008 0.00109999
3.2125 -0.0500008 0.00109999
3.225 -0.0500008 0.00109999
3.2375 -0.0500008 0.00109999
3.25 -0.0500008 0.00109999
3.2625 -0.0500008 0.00109999
3.275 -0.0500008 0.00109999
3.2875 -0.0500008 0.00109999
3.3 -0.0500008 0.00109999
3.3125 -0.0500008 0.00109999
3.325 -0.0500008 0.00109999
3.3375 -0.0500008 0.00109999
3.35 -0.0500008 0.0011
3.3625 -0.0500008 0.0011
[...]
POINT_DATA 15780
 FIELD attributes 1
U 3 15780 float
30.0002 	-7.01808e-06 	-6.30588e-06 30.0002 	-6.8436e-06 	-6.51455e-06 30.0002 	-6.66911e-06 	-6.72322e-06 30.0002 	-6.49462e-06 	-6.93188e-06 30.0002 	-6.32013e-06 	-7.14055e-06 30.0002 	-6.14564e-06 	-7.34922e-06 30.0004 	-1.23855e-05 	-1.26099e-06 30.0004 	-1.23855e-05 	-1.26099e-06 30.0004 	-1.23855e-05 	-1.26099e-06 30.0004 	-1.23855e-05 	-1.26099e-06 30.0002 	-7.07235e-08 	-6.84368e-06 30.0005 	-1.07095e-05 	-1.68703e-06 30.0005 	-1.07095e-05 	-1.68703e-06 30.0005 	-1.07095e-05 	-1.68703e-06 30.0005 	-1.07095e-05 	-1.68703e-06 30.0002 	-7.24289e-08 	-6.59609e-06 30.0005 	-9.95896e-06 	-2.08021e-06 30.0005 	-9.95895e-06 	-2.08021e-06 30.0005 	-9.95894e-06 	-2.08021e-06 30.0005 	-9.95893e-06 	-2.0802e-06 30.0003 	-4.59335e-06 	-6.24726e-06 30.0005 	-9.69224e-06 	-2.34893e-06 30.0005 	-9.69223e-06 	-2.34893e-06 30.0005 	-9.69222e-06 	-2.34893e-06 30.0005 	-9.69221e-06 	-2.34893e-06 30.0003 	-7.60732e-08 	-6.57616e-06 30.0005 	-9.52411e-06 	-2.4978e-06 30.0005 	-9.5241e-06 	-2.4978e-06 30.0005 	-9.52409e-06 	-2.49779e-06 30.0005 	-9.52408e-06 	-2.49779e-06 30.0003 	-7.78556e-08 	-6.52627e-06 30.0005 	-9.38778e-06 	-2.55604e-06 30.0005 	-9.38777e-06 	-2.55604e-06 30.0005 	-9.38776e-06 	-2.55604e-06 30.0005 	-9.38775e-06 	-2.55604e-06 30.0003 	-4.26724e-06 	-6.08529e-06 30.0005 	-9.28038e-06 	-2.55828e-06 30.0005 	-9.28038e-06 	-2.55827e-06 30.0005 	-9.28037e-06 	-2.55827e-06 30.0005 	-9.28036e-06 	-2.55827e-06 30.0003 	-4.19965e-06 	-5.97789e-06 30.0006 	-9.18824e-06 	-2.53041e-06 30.0006 	-9.18823e-06 	-2.5304e-06 30.0006 	-9.18822e-06 	-2.5304e-06 30.0006 	-9.18821e-06 	-2.5304e-06 30.0003 	-8.32191e-08 	-6.20127e-06 30.0006 	-9.09821e-06 	-2.48116e-06 30.0006 	-9.0982e-06 	-2.48116e-06 30.0006 	-9.09819e-06 	-2.48115e-06 30.0006 	-9.09818e-06 	-2.48115e-06 30.0003 	-8.49878e-08 	-6.05424e-06 30.0006 	-9.00579e-06 	-2.41359e-06 30.0006 	-9.00578e-06 	-2.41359e-06 30.0006 	-9.00577e-06 	-2.41358e-06 30.0006 	-9.00576e-06 	-2.41358e-06 30.0003 	-8.67563e-08 	-5.88782e-06 30.0006 	-8.90967e-06 	-2.32971e-06 30.0006 	-8.90967e-06 	-2.32971e-06 30.0006 	-8.90966e-06 	-2.3297e-06 30.0006 	-8.90965e-06 	-2.3297e-06 30.0003 	-3.93832e-06 	-5.36347e-06 30.0006 	-8.80967e-06 	-2.23273e-06 30.0006 	-8.80966e-06 	-2.23272e-06 30.0006 	-8.80965e-06 	-2.23272e-06 30.0006 	-8.80965e-06 	-2.23272e-06 30.0003 	-3.86455e-06 	-5.16476e-06 30.0006 	-8.70543e-06 	-2.12412e-06 30.0006 	-8.70542e-06 	-2.12412e-06 30.0006 	-8.70542e-06 	-2.12411e-06 30.0006 	-8.70541e-06 	-2.12411e-06 30.0003 	-9.20646e-08 	-5.28458e-06 30.0006 	-8.59724e-06 	-2.00506e-06 30.0006 	-8.59724e-06 	-2.00506e-06 30.0006 	-8.59723e-06 	-2.00506e-06 30.0006 	-8.59723e-06 	-2.00506e-06 30.0003 	-3.70495e-06 	-4.7194e-06 30.0007 	-8.4859e-06 	-1.87667e-06 30.0007 	-8.48589e-06 	-1.87667e-06 30.0007 	-8.48588e-06 	-1.87667e-06 30.0007 	-8.48588e-06 	-1.87666e-06 30.0003 	-3.61986e-06 	-4.47431e-06 30.0007 	-8.37258e-06 	-1.73882e-06 30.0007 	-8.37257e-06 	-1.73882e-06 30.0007 	-8.37256e-06 	-1.73882e-06 30.0007 	-8.37256e-06 	-1.73882e-06 30.0004 	-9.73014e-08 	-4.54319e-06 30.0007 	-8.26097e-06 	-1.59802e-06 30.0007 	-8.26097e-06 	-1.59802e-06 30.0007 	-8.26096e-06 	-1.59802e-06 30.0007 	-8.26096e-06 	-1.59802e-06 30.0004 	-9.90283e-08 	-4.27124e-06 30.0007 	-8.14898e-06 	-1.46322e-06 30.0007 	-8.14898e-06 	-1.46322e-06 30.0007 	-8.14897e-06 	-1.46322e-06 30.0007 	-8.14897e-06 	-1.46322e-06 30.0004 	-1.0076e-07 	-3.98926e-06 30.0007 	-8.02092e-06 	-1.32071e-06 30.0007 	-8.02092e-06 	-1.32071e-06 30.0007 	-8.02092e-06 	-1.32071e-06 30.0007 	-8.02091e-06 	-1.32071e-06 30.0004 	-3.25148e-06 	-3.37795e-06 30.0007 	-7.88215e-06 	-1.16799e-06 30.0007 	-7.88215e-06 	-1.16799e-06 30.0007 	-7.88214e-06 	-1.16799e-06 30.0007 	-7.88214e-06 	-1.16799e-06 30.0004 	-1.04192e-07 	-3.40288e-06 30.0007 	-7.74623e-06 	-1.00786e-06 30.0007 	-7.74623e-06 	-1.00786e-06 30.0007 	-7.74622e-06 	-1.00786e-06 30.0007 	-7.74622e-06 	-1.00786e-06 30.0004 	-1.05898e-07 	-3.10327e-06 30.0007 	-7.6121e-06 	-8.41848e-07 30.0007 	-7.6121e-06 	-8.41848e-07 30.0007 	-7.6121e-06 	-8.41848e-07 30.0007 	-7.61209e-06 	-8.41847e-07 30.0004 	-2.93232e-06 	-2.48789e-06 30.0007 	-7.47634e-06 	-6.70195e-07 30.0007 	-7.47634e-06 	-6.70194e-07 30.0007 	-7.47634e-06 	-6.70194e-07 30.0007 	-7.47633e-06 	-6.70194e-07 30.0004 	-2.82584e-06 	-2.18313e-06 30.0007 	-7.34419e-06 	-4.9704e-07 30.0007 	-7.34419e-06 	-4.9704e-07 30.0007 	-7.34419e-06 	-4.97039e-07 30.0007 	-7.34419e-06 	-4.97039e-07 30.0004 	-1.10977e-07 	-2.1711e-06 30.0007 	-7.21639e-06 	-3.17312e-07 30.0007 	-7.21639e-06 	-3.17312e-07 30.0007 	-7.21639e-06 	-3.17312e-07 30.0007 	-7.21639e-06 	-3.17312e-07 30.0004 	-1.12651e-07 	-1.85336e-06 30.0007 	-7.09966e-06 	-1.38207e-07 30.0007 	-7.09966e-06 	-1.38207e-07 30.0007 	-7.09966e-06 	-1.38207e-07 30.0007 	-7.09966e-06 	-1.38207e-07 30.0004 	-1.14313e-07 	-1.54902e-06 30.0007 	-6.98635e-06 	4.0858e-08 30.0007 	-6.98635e-06 	4.0858e-08 30.0007 	-6.98635e-06 	4.0858e-08 30.0007 	-6.98635e-06 	4.0858e-08 30.0004 	-2.43938e-06 	-9.5851e-07 30.0007 	-6.87277e-06 	2.14677e-07 30.0007 	-6.87277e-06 	2.14677e-07 30.0007 	-6.87277e-06 	2.14677e-07 30.0007 	-6.87277e-06 	2.14677e-07 30.0004 	-2.34777e-06 	-6.82309e-07 30.0007 	-6.75457e-06 	3.90726e-07 30.0007 	-6.75457e-06 	3.90726e-07 30.0007 	-6.75457e-06 	3.90727e-07 30.0007 	-6.75457e-06 	3.90727e-07 30.0004 	-1.19257e-07 	-7.09766e-07 30.0007 	-6.64402e-06 	5.64375e-07 30.0007 	-6.64402e-06 	5.64375e-07 30.0007 	-6.64402e-06 	5.64375e-07 30.0007 	-6.64403e-06 	5.64375e-07 30.0004 	-2.1674e-06 	-1.45452e-07 30.0007 	-6.53706e-06 	7.27401e-07 30.0007 	-6.53706e-06 	7.27401e-07 30.0007 	-6.53706e-06 	7.27401e-07 30.0007 	-6.53706e-06 	7.27401e-07 30.0004 	-2.08173e-06 	1.13828e-07 30.0007 	-6.43176e-06 	8.78846e-07 30.0007 	-6.43176e-06 	8.78846e-07 30.0007 	-6.43177e-06 	8.78847e-07 30.0007 	-6.43177e-06 	8.78847e-07 30.0004 	-1.24158e-07 	7.05839e-08 30.0007 	-6.32414e-06 	1.01779e-06 30.0007 	-6.32414e-06 	1.01779e-06 30.0007 	-6.32415e-06 	1.0178e-06 30.0007 	-6.32415e-06 	1.0178e-06 30.0004 	-1.25741e-07 	3.15814e-07 30.0007 	-6.21779e-06 	1.14062e-06 30.0007 	-6.21779e-06 	1.14062e-06 30.0007 	-6.21779e-06 	1.14062e-06 30.0007 	-6.21779e-06 	1.14062e-06 30.0004 	-1.27333e-07 	5.45532e-07 30.0007 	-6.11654e-06 	1.25632e-06 30.0007 	-6.11655e-06 	1.25632e-06 30.0007 	-6.11655e-06 	1.25632e-06 30.0007 	-6.11655e-06 	1.25632e-06 30.0004 	-1.76493e-06 	1.03207e-06 30.0007 	-6.02384e-06 	1.37128e-06 30.0007 	-6.02384e-06 	1.37128e-06 30.0007 	-6.02385e-06 	1.37128e-06 30.0007 	-6.02385e-06 	1.37128e-06 30.0004 	-1.30452e-07 	9.36949e-07 30.0007 	-5.94419e-06 	1.48851e-06 30.0007 	-5.9442e-06 	1.48851e-06 30.0007 	-5.9442e-06 	1.48851e-06 30.0007 	-5.9442e-06 	1.48851e-06 30.0004 	-1.31954e-07 	1.10457e-06 30.0007 	-5.873e-06 	1.59289e-06 30.0007 	-5.873e-06 	1.59289e-06 30.0007 	-5.873e-06 	1.5929e-06 30.0007 	-5.87301e-06 	1.5929e-06 30.0004 	-1.59208e-06 	1.53876e-06 30.0007 	-5.80341e-06 	1.67932e-06 30.0007 	-5.80341e-06 	1.67932e-06 30.0007 	-5.80341e-06 	1.67932e-06 30.0007 	-5.80342e-06 	1.67932e-06 30.0003 	-1.54487e-06 	1.67821e-06 30.0007 	-5.73531e-06 	1.75011e-06 30.0007 	-5.73531e-06 	1.75011e-06 30.0007 	-5.73532e-06 	1.75012e-06 30.0007 	-5.73532e-06 	1.75012e-06 30.0003 	-1.36678e-07 	1.52474e-06 30.0006 	-5.67018e-06 	1.80982e-06 30.0006 	-5.67018e-06 	1.80982e-06 30.0006 	-5.67018e-06 	1.80982e-06 30.0006 	-5.67019e-06 	1.80982e-06 30.0003 	-1.38241e-07 	1.63228e-06 30.0006 	-5.61012e-06 	1.85995e-06 30.0006 	-5.61012e-06 	1.85995e-06 30.0006 	-5.61013e-06 	1.85995e-06 30.0006 	-5.61013e-06 	1.85995e-06 30.0003 	-1.39722e-07 	1.72401e-06 30.0006 	-5.55585e-06 	1.90044e-06 30.0006 	-5.55585e-06 	1.90044e-06 30.0006 	-5.55586e-06 	1.90044e-06 30.0006 	-5.55586e-06 	1.90044e-06 30.0003 	-1.38958e-06 	2.07104e-06 30.0006 	-5.50704e-06 	1.9311e-06 30.0006 	-5.50705e-06 	1.93111e-06 30.0006 	-5.50705e-06 	1.93111e-06 30.0006 	-5.50706e-06 	1.93111e-06 30.0003 	-1.36256e-06 	2.13097e-06 30.0006 	-5.46328e-06 	1.95184e-06 30.0006 	-5.46328e-06 	1.95184e-06 30.0006 	-5.46328e-06 	1.95184e-06 30.0006 	-5.46329e-06 	1.95184e-06 30.0003 	-1.43769e-07 	1.90828e-06 30.0006 	-5.42446e-06 	1.96279e-06 30.0006 	-5.42447e-06 	1.96279e-06 30.0006 	-5.42447e-06 	1.96279e-06 30.0006 	-5.42447e-06 	1.96279e-06 30.0003 	-1.32416e-06 	2.20767e-06 30.0006 	-5.39052e-06 	1.96432e-06 30.0006 	-5.39053e-06 	1.96432e-06 30.0006 	-5.39053e-06 	1.96432e-06 30.0006 	-5.39054e-06 	1.96432e-06 30.0003 	-1.31239e-06 	2.22555e-06 30.0006 	-5.36136e-06 	1.95693e-06 30.0006 	-5.36137e-06 	1.95693e-06 30.0006 	-5.36137e-06 	1.95693e-06 30.0006 	-5.36138e-06 	1.95693e-06 30.0003 	-1.47657e-07 	1.96619e-06 30.0005 	-5.33685e-06 	1.94113e-06 30.0005 	-5.33686e-06 	1.94113e-06 30.0005 	-5.33686e-06 	1.94113e-06 30.0005 	-5.33687e-06 	1.94113e-06 30.0003 	-1.48911e-07 	1.96059e-06 30.0005 	-5.31687e-06 	1.91794e-06 30.0005 	-5.31687e-06 	1.91794e-06 30.0005 	-5.31688e-06 	1.91794e-06 30.0005 	-5.31688e-06 	1.91794e-06 30.0003 	-1.50132e-07 	1.94426e-06 30.0005 	-5.3013e-06 	1.88801e-06 30.0005 	-5.3013e-06 	1.88801e-06 30.0005 	-5.30131e-06 	1.88801e-06 30.0005 	-5.30131e-06 	1.88801e-06 30.0003 	-1.30983e-06 	2.17902e-06 30.0005 	-5.28998e-06 	1.85192e-06 30.0005 	-5.28999e-06 	1.85192e-06 30.0005 	-5.28999e-06 	1.85192e-06 30.0005 	-5.28999e-06 	1.85192e-06 30.0003 	-1.52498e-07 	1.88232e-06 30.0005 	-5.28272e-06 	1.8101e-06 30.0005 	-5.28272e-06 	1.8101e-06 30.0005 	-5.28273e-06 	1.8101e-06 30.0005 	-5.28273e-06 	1.8101e-06 30.0003 	-1.53617e-07 	1.8382e-06 30.0005 	-5.27928e-06 	1.76318e-06 30.0005 	-5.27928e-06 	1.76318e-06 30.0005 	-5.27928e-06 	1.76318e-06 30.0005 	-5.27929e-06 	1.76318e-06 30.0003 	-1.34907e-06 	2.0441e-06 30.0005 	-5.27947e-06 	1.71164e-06 30.0005 	-5.27947e-06 	1.71164e-06 30.0005 	-5.27947e-06 	1.71165e-06 30.0005 	-5.27948e-06 	1.71165e-06 30.0003 	-1.36913e-06 	1.98426e-06 30.0005 	-5.283e-06 	1.65601e-06 30.0005 	-5.283e-06 	1.65601e-06 30.0005 	-5.283e-06 	1.65601e-06 30.0005 	-5.28301e-06 	1.65602e-06 30.0002 	-1.56839e-07 	1.66284e-06 30.0005 	-5.2898e-06 	1.5967e-06 30.0005 	-5.2898e-06 	1.5967e-06 30.0005 	-5.28981e-06 	1.5967e-06 30.0005 	-5.28981e-06 	1.59671e-06 30.0002 	-1.57895e-07 	1.59259e-06 30.0004 	-5.29975e-06 	1.53418e-06 30.0004 	-5.29976e-06 	1.53418e-06 30.0004 	-5.29976e-06 	1.53418e-06 30.0004 	-5.29976e-06 	1.53418e-06 30.0002 	-1.58974e-07 	1.51773e-06 30.0004 	-5.31271e-06 	1.46892e-06 30.0004 	-5.31271e-06 	1.46892e-06 30.0004 	-5.31272e-06 	1.46892e-06 30.0004 	-5.31272e-06 	1.46892e-06 30.0002 	-1.4808e-06 	1.69065e-06 30.0004 	-5.32828e-06 	1.40147e-06 30.0004 	-5.32828e-06 	1.40147e-06 30.0004 	-5.32828e-06 	1.40147e-06 30.0004 	-5.32829e-06 	1.40147e-06 30.0002 	-1.51532e-06 	1.60716e-06 30.0004 	-5.34613e-06 	1.33223e-06 30.0004 	-5.34613e-06 	1.33223e-06 30.0004 	-5.34613e-06 	1.33223e-06 30.0004 	-5.34614e-06 	1.33223e-06 30.0002 	-1.62214e-07 	1.2719e-06 30.0004 	-5.36611e-06 	1.26151e-06 30.0004 	-5.36611e-06 	1.26151e-06 30.0004 	-5.36611e-06 	1.26151e-06 30.0004 	-5.36611e-06 	1.26151e-06 30.0002 	-1.59063e-06 	1.43252e-06 30.0004 	-5.38795e-06 	1.18984e-06 30.0004 	-5.38795e-06 	1.18984e-06 30.0004 	-5.38795e-06 	1.18984e-06 30.0004 	-5.38795e-06 	1.18984e-06 30.0002 	-1.63111e-06 	1.34245e-06 30.0004 	-5.41158e-06 	1.11752e-06 30.0004 	-5.41158e-06 	1.11752e-06 30.0004 	-5.41159e-06 	1.11752e-06 30.0004 	-5.41159e-06 	1.11752e-06 30.0002 	-1.65212e-07 	1.00613e-06 30.0004 	-5.43663e-06 	1.04484e-06 30.0004 	-5.43663e-06 	1.04484e-06 30.0004 	-5.43664e-06 	1.04485e-06 30.0004 	-5.43664e-06 	1.04485e-06 30.0002 	-1.66139e-07 	9.15659e-07 30.0004 	-5.4623e-06 	9.72305e-07 30.0004 	-5.4623e-06 	9.72305e-07 30.0004 	-5.4623e-06 	9.72306e-07 30.0004 	-5.46231e-06 	9.72306e-07 30.0002 	-1.6704e-07 	8.25037e-07 30.0004 	-5.48836e-06 	8.99525e-07 30.0004 	-5.48836e-06 	8.99525e-07 30.0004 	-5.48836e-06 	8.99526e-07 30.0004 	-5.48836e-06 	8.99526e-07 30.0002 	-1.80798e-06 	9.75452e-07 30.0004 	-5.51516e-06 	8.25993e-07 30.0004 	-5.51516e-06 	8.25994e-07 30.0004 	-5.51516e-06 	8.25994e-07 30.0004 	-5.51516e-06 	8.25994e-07 30.0002 	-1.68744e-07 	6.43672e-07 30.0003 	-5.5449e-06 	7.52035e-07 30.0003 	-5.5449e-06 	7.52035e-07 30.0003 	-5.5449e-06 	7.52035e-07 30.0003 	-5.54491e-06 	7.52035e-07 30.0002 	-1.69556e-07 	5.52678e-07 30.0003 	-5.57938e-06 	6.7749e-07 30.0003 	-5.57939e-06 	6.77491e-07 30.0003 	-5.57939e-06 	6.77491e-07 30.0003 	-5.57939e-06 	6.77491e-07 30.0002 	-1.95634e-06 	7.01345e-07 30.0003 	-5.61626e-06 	6.04428e-07 30.0003 	-5.61626e-06 	6.04428e-07 30.0003 	-5.61626e-06 	6.04428e-07 30.0003 	-5.61626e-06 	6.04428e-07 30.0002 	-2.00852e-06 	6.11715e-07 30.0003 	-5.65227e-06 	5.3471e-07 30.0003 	-5.65227e-06 	5.3471e-07 30.0003 	-5.65227e-06 	5.3471e-07 30.0003 	-5.65227e-06 	5.3471e-07 30.0002 	-1.72027e-07 	2.80985e-07 30.0003 	-5.68336e-06 	4.67688e-07 30.0003 	-5.68337e-06 	4.67688e-07 30.0003 	-5.68337e-06 	4.67688e-07 30.0003 	-5.68337e-06 	4.67688e-07 30.0002 	-1.72847e-07 	1.9737e-07 30.0003 	-5.71179e-06 	4.03243e-07 30.0003 	-5.71179e-06 	4.03243e-07 30.0003 	-5.71179e-06 	4.03243e-07 30.0003 	-5.71179e-06 	4.03243e-07 30.0002 	-1.73643e-07 	1.16439e-07 30.0003 	-5.73996e-06 	3.3928e-07 30.0003 	-5.73996e-06 	3.3928e-07 30.0003 	-5.73996e-06 	3.3928e-07 30.0003 	-5.73996e-06 	3.3928e-07 30.0002 	-2.20174e-06 	2.74113e-07 30.0003 	-5.76793e-06 	2.75319e-07 30.0003 	-5.76794e-06 	2.75319e-07 30.0003 	-5.76794e-06 	2.75319e-07 30.0003 	-5.76794e-06 	2.75319e-07 30.0002 	-2.24866e-06 	1.9637e-07 30.0003 	-5.79459e-06 	2.10828e-07 30.0003 	-5.79459e-06 	2.10828e-07 30.0003 	-5.79459e-06 	2.10828e-07 30.0003 	-5.79459e-06 	2.10828e-07 30.0002 	-1.75756e-07 	-1.0911e-07 30.0003 	-5.82252e-06 	1.48814e-07 30.0003 	-5.82252e-06 	1.48814e-07 30.0003 	-5.82252e-06 	1.48814e-07 30.0003 	-5.82252e-06 	1.48814e-07 30.0002 	-2.34237e-06 	4.46809e-08 30.0003 	-5.85177e-06 	9.00192e-08 30.0003 	-5.85177e-06 	9.00192e-08 30.0003 	-5.85177e-06 	9.00192e-08 30.0003 	-5.85177e-06 	9.00192e-08 30.0002 	-2.38967e-06 	-2.90911e-08 30.0003 	-5.88218e-06 	3.48536e-08 30.0003 	-5.88218e-06 	3.48536e-08 30.0003 	-5.88218e-06 	3.48536e-08 30.0003 	-5.88218e-06 	3.48536e-08 30.0002 	-1.77698e-07 	-3.30737e-07 30.0003 	-5.91379e-06 	-1.70378e-08 30.0003 	-5.91379e-06 	-1.70378e-08 30.0003 	-5.91379e-06 	-1.70378e-08 30.0003 	-5.91379e-06 	-1.70378e-08 30.0002 	-1.7829e-07 	-4.01775e-07 30.0003 	-5.94691e-06 	-6.90196e-08 30.0003 	-5.94691e-06 	-6.90196e-08 30.0003 	-5.94691e-06 	-6.90196e-08 30.0003 	-5.94691e-06 	-6.90196e-08 30.0002 	-1.78884e-07 	-4.67048e-07 30.0003 	-5.97885e-06 	-1.23283e-07 30.0003 	-5.97885e-06 	-1.23283e-07 30.0003 	-5.97885e-06 	-1.23283e-07 30.0003 	-5.97885e-06 	-1.23283e-07 30.0002 	-2.58111e-06 	-3.01371e-07 30.0003 	-6.00661e-06 	-1.77926e-07 30.0003 	-6.00661e-06 	-1.77926e-07 30.0003 	-6.00661e-06 	-1.77926e-07 30.0003 	-6.00661e-06 	-1.77926e-07 30.0002 	-1.80046e-07 	-5.84861e-07 30.0003 	-6.03072e-06 	-2.29184e-07 30.0003 	-6.03072e-06 	-2.29184e-07 30.0003 	-6.03072e-06 	-2.29184e-07 30.0003 	-6.03072e-06 	-2.29184e-07 30.0002 	-1.80623e-07 	-6.42125e-07 30.0003 	-6.05396e-06 	-2.76149e-07 30.0003 	-6.05396e-06 	-2.76149e-07 30.0003 	-6.05395e-06 	-2.76149e-07 30.0003 	-6.05395e-06 	-2.76149e-07 30.0002 	-2.70916e-06 	-4.78974e-07 30.0003 	-6.07781e-06 	-3.19626e-07 30.0003 	-6.07781e-06 	-3.19626e-07 30.0003 	-6.07781e-06 	-3.19626e-07 30.0003 	-6.07781e-06 	-3.19626e-07 30.0002 	-2.75017e-06 	-5.34017e-07 30.0003 	-6.10195e-06 	-3.61163e-07 30.0003 	-6.10195e-06 	-3.61163e-07 30.0003 	-6.10195e-06 	-3.61163e-07 30.0003 	-6.10195e-06 	-3.61163e-07 30.0002 	-1.82328e-07 	-8.03764e-07 30.0003 	-6.12596e-06 	-4.01359e-07 30.0003 	-6.12596e-06 	-4.01359e-07 30.0003 	-6.12596e-06 	-4.01358e-07 30.0003 	-6.12595e-06 	-4.01358e-07 30.0001 	-1.82865e-07 	-8.53084e-07 30.0003 	-6.14935e-06 	-4.40352e-07 30.0003 	-6.14935e-06 	-4.40352e-07 30.0003 	-6.14934e-06 	-4.40352e-07 30.0003 	-6.14934e-06 	-4.40352e-07 30.0001 	-1.83396e-07 	-9.00294e-07 30.0003 	-6.17199e-06 	-4.77971e-07 30.0003 	-6.17199e-06 	-4.77971e-07 30.0003 	-6.17199e-06 	-4.77971e-07 30.0003 	-6.17199e-06 	-4.7797e-07 30.0001 	-2.9096e-06 	-7.31447e-07 30.0003 	-6.19378e-06 	-5.14183e-07 30.0003 	-6.19378e-06 	-5.14183e-07 30.0003 	-6.19378e-06 	-5.14183e-07 30.0003 	-6.19378e-06 	-5.14183e-07 30.0001 	-2.94747e-06 	-7.75574e-07 30.0003 	-6.2146e-06 	-5.4881e-07 30.0003 	-6.2146e-06 	-5.48809e-07 30.0003 	-6.2146e-06 	-5.48809e-07 30.0003 	-6.2146e-06 	-5.48809e-07 30.0001 	-1.84858e-07 	-1.02951e-06 30.0003 	-6.23462e-06 	-5.82029e-07 30.0003 	-6.23462e-06 	-5.82029e-07 30.0003 	-6.23462e-06 	-5.82029e-07 30.0003 	-6.23462e-06 	-5.82029e-07 30.0001 	-3.0204e-06 	-8.57463e-07 30.0003 	-6.25389e-06 	-6.13869e-07 30.0003 	-6.25389e-06 	-6.13868e-07 30.0003 	-6.25389e-06 	-6.13868e-07 30.0003 	-6.25389e-06 	-6.13868e-07 30.0001 	-3.05549e-06 	-8.95468e-07 30.0003 	-6.27236e-06 	-6.4439e-07 30.0003 	-6.27236e-06 	-6.44389e-07 30.0003 	-6.27235e-06 	-6.44389e-07 30.0003 	-6.27235e-06 	-6.44389e-07 30.0001 	-1.86227e-07 	-1.14082e-06 30.0003 	-6.28997e-06 	-6.73593e-07 30.0003 	-6.28997e-06 	-6.73593e-07 30.0003 	-6.28997e-06 	-6.73593e-07 30.0003 	-6.28997e-06 	-6.73592e-07 30.0001 	-1.86648e-07 	-1.17458e-06 30.0003 	-6.30697e-06 	-7.01412e-07 30.0003 	-6.30697e-06 	-7.01412e-07 30.0003 	-6.30697e-06 	-7.01411e-07 30.0003 	-6.30697e-06 	-7.01411e-07 30.0001 	-1.87086e-07 	-1.20667e-06 30.0003 	-6.32304e-06 	-7.27842e-07 30.0003 	-6.32304e-06 	-7.27842e-07 30.0003 	-6.32304e-06 	-7.27842e-07 30.0003 	-6.32304e-06 	-7.27842e-07 30.0001 	-3.18686e-06 	-1.03099e-06 30.0003 	-6.33828e-06 	-7.52954e-07 30.0003 	-6.33828e-06 	-7.52954e-07 30.0003 	-6.33828e-06 	-7.52953e-07 30.0003 	-6.33828e-06 	-7.52953e-07 30.0001 	-1.8793e-07 	-1.26595e-06 30.0003 	-6.35278e-06 	-7.76922e-07 30.0003 	-6.35278e-06 	-7.76922e-07 30.0003 	-6.35277e-06 	-7.76922e-07 30.0003 	-6.35277e-06 	-7.76921e-07 30.0001 	-1.88328e-07 	-1.2933e-06 30.0003 	-6.36658e-06 	-7.99793e-07 30.0003 	-6.36658e-06 	-7.99793e-07 30.0003 	-6.36658e-06 	-7.99792e-07 30.0003 	-6.36657e-06 	-7.99792e-07 30.0001 	-3.27624e-06 	-1.11604e-06 30.0003 	-6.37966e-06 	-8.21519e-07 30.0003 	-6.37966e-06 	-8.21519e-07 30.0003 	-6.37965e-06 	-8.21519e-07 30.0003 	-6.37965e-06 	-8.21519e-07 30.0001 	-3.30433e-06 	-1.14151e-06 30.0003 	-6.39187e-06 	-8.41958e-07 30.0003 	-6.39187e-06 	-8.41957e-07 30.0003 	-6.39187e-06 	-8.41957e-07 30.0003 	-6.39187e-06 	-8.41957e-07 30.0001 	-1.89491e-07 	-1.36685e-06 30.0003 	-6.40347e-06 	-8.61349e-07 30.0003 	-6.40347e-06 	-8.61348e-07 30.0003 	-6.40347e-06 	-8.61348e-07 30.0003 	-6.40347e-06 	-8.61348e-07 30.0001 	-1.89864e-07 	-1.38872e-06 30.0003 	-6.4144e-06 	-8.79786e-07 30.0003 	-6.4144e-06 	-8.79786e-07 30.0003 	-6.4144e-06 	-8.79786e-07 30.0003 	-6.4144e-06 	-8.79785e-07 30.0001 	-1.90237e-07 	-1.40937e-06 30.0003 	-6.42464e-06 	-8.97269e-07 30.0003 	-6.42463e-06 	-8.97269e-07 30.0003 	-6.42463e-06 	-8.97269e-07 30.0003 	-6.42463e-06 	-8.97268e-07 30.0001 	-3.40859e-06 	-1.23051e-06 30.0003 	-6.4342e-06 	-9.13854e-07 30.0003 	-6.4342e-06 	-9.13854e-07 30.0003 	-6.4342e-06 	-9.13854e-07 30.0003 	-6.4342e-06 	-9.13853e-07 30.0001 	-3.43271e-06 	-1.24984e-06 30.0003 	-6.44301e-06 	-9.29545e-07 30.0003 	-6.44301e-06 	-9.29544e-07 30.0003 	-6.44301e-06 	-9.29544e-07 30.0003 	-6.44301e-06 	-9.29544e-07 30.0001 	-1.91268e-07 	-1.46454e-06 30.0003 	-6.45123e-06 	-9.44401e-07 30.0003 	-6.45123e-06 	-9.444e-07 30.0003 	-6.45122e-06 	-9.444e-07 30.0003 	-6.45122e-06 	-9.444e-07 30.0001 	-3.47873e-06 	-1.28533e-06 30.0003 	-6.45889e-06 	-9.58405e-07 30.0003 	-6.45889e-06 	-9.58405e-07 30.0003 	-6.45889e-06 	-9.58405e-07 30.0003 	-6.45888e-06 	-9.58404e-07 30.0001 	-3.50077e-06 	-1.30159e-06 30.0003 	-6.46595e-06 	-9.71697e-07 30.0003 	-6.46595e-06 	-9.71696e-07 30.0003 	-6.46595e-06 	-9.71696e-07 30.0003 	-6.