# vtk DataFile Version 2.0
track0
ASCII
DATASET POLYDATA
POINTS 15780 float
-1.001 -0.05 0.0011
-1.0008 -0.05 0.0011
-1.0006 -0.05 0.0011
-1.0004 -0.05 0.0011
-1.0002 -0.05 0.0011
-1 -0.05 0.0011
-0.9875 -0.05 0.0011
-0.975 -0.05 0.0011
-0.9625 -0.05 0.0011
-0.95 -0.05 0.0011
-0.9375 -0.05 0.00109999
-0.925 -0.05 0.00109999
-0.9125 -0.05 0.00109999
-0.9 -0.05 0.00109999
-0.8875 -0.05 0.00109999
-0.875 -0.05 0.00109999
-0.8625 -0.05 0.00109999
-0.85 -0.05 0.00109999
-0.8375 -0.05 0.00109998
-0.825 -0.0500001 0.00109998
-0.8125 -0.0500001 0.00109998
-0.8 -0.0500001 0.00109998
-0.7875 -0.0500001 0.00109998
-0.775 -0.0500001 0.00109998
-0.7625 -0.0500001 0.00109998
-0.75 -0.0500001 0.00109998
-0.7375 -0.0500001 0.00109997
-0.725 -0.0500001 0.00109997
-0.7125 -0.0500001 0.00109997
-0.7 -0.0500001 0.00109997
-0.6875 -0.0500001 0.00109997
-0.675 -0.0500001 0.00109997
-0.6625 -0.0500001 0.00109997
-0.65 -0.0500001 0.00109996
-0.6375 -0.0500001 0.00109996
-0.625 -0.0500001 0.00109996
-0.6125 -0.0500001 0.00109996
-0.6 -0.0500001 0.00109996
-0.5875 -0.0500001 0.00109996
-0.575 -0.0500001 0.00109996
-0.5625 -0.0500001 0.00109996
-0.55 -0.0500001 0.00109995
-0.5375 -0.0500001 0.00109995
-0.525 -0.0500001 0.00109995
-0.5125 -0.0500001 0.00109995
-0.5 -0.0500001 0.00109995
-0.4875 -0.0500001 0.00109995
-0.475 -0.0500001 0.00109995
-0.4625 -0.0500001 0.00109994
-0.45 -0.0500002 0.00109994
-0.4375 -0.0500002 0.00109994
-0.425 -0.0500002 0.00109994
-0.4125 -0.0500002 0.00109994
-0.4 -0.0500002 0.00109994
-0.3875 -0.0500002 0.00109994
-0.375 -0.0500002 0.00109994
-0.3625 -0.0500002 0.00109993
-0.35 -0.0500002 0.00109993
-0.3375 -0.0500002 0.00109993
-0.325 -0.0500002 0.00109993
-0.3125 -0.0500002 0.00109993
-0.3 -0.0500002 0.00109993
-0.2875 -0.0500002 0.00109993
-0.275 -0.0500002 0.00109993
-0.2625 -0.0500002 0.00109992
-0.25 -0.0500002 0.00109992
-0.2375 -0.0500002 0.00109992
-0.225 -0.0500002 0.00109992
-0.2125 -0.0500002 0.00109992
-0.2 -0.0500002 0.00109992
-0.1875 -0.0500002 0.00109992
-0.175 -0.0500002 0.00109992
-0.1625 -0.0500002 0.00109991
-0.15 -0.0500002 0.00109991
-0.1375 -0.0500002 0.00109991
-0.125 -0.0500002 0.00109991
-0.1125 -0.0500002 0.00109991
-0.1 -0.0500002 0.00109991
-0.0875 -0.0500002 0.00109991
-0.075 -0.0500002 0.00109991
-0.0625 -0.0500002 0.00109991
-0.05 -0.0500003 0.00109991
-0.0375 -0.0500003 0.0010999
-0.025 -0.0500003 0.0010999
-0.0125 -0.0500003 0.0010999
2.10607e-13 -0.0500003 0.0010999
0.0125 -0.0500003 0.0010999
0.025 -0.0500003 0.0010999
0.0375 -0.0500003 0.0010999
0.05 -0.0500003 0.0010999
0.0625 -0.0500003 0.0010999
0.075 -0.0500003 0.0010999
0.0875 -0.0500003 0.0010999
0.1 -0.0500003 0.00109989
0.1125 -0.0500003 0.00109989
0.125 -0.0500003 0.00109989
0.1375 -0.0500003 0.00109989
0.15 -0.0500003 0.00109989
0.1625 -0.0500003 0.00109989
0.175 -0.0500003 0.00109989
0.1875 -0.0500003 0.00109989
0.2 -0.0500003 0.00109989
0.2125 -0.0500003 0.00109989
0.225 -0.0500003 0.00109989
0.2375 -0.0500003 0.00109989
0.25 -0.0500003 0.00109989
0.2625 -0.0500003 0.00109988
0.275 -0.0500003 0.00109988
0.2875 -0.0500003 0.00109988
0.3 -0.0500003 0.00109988
0.3125 -0.0500003 0.00109988
0.325 -0.0500003 0.00109988
0.3375 -0.0500003 0.00109988
0.35 -0.0500003 0.00109988
0.3625 -0.0500003 0.00109988
0.375 -0.0500003 0.00109988
0.3875 -0.0500003 0.00109988
0.4 -0.0500004 0.00109988
0.4125 -0.0500004 0.00109988
0.425 -0.0500004 0.00109988
0.4375 -0.0500004 0.00109988
0.45 -0.0500004 0.00109988
0.4625 -0.0500004 0.00109988
0.475 -0.0500004 0.00109988
0.4875 -0.0500004 0.00109988
0.5 -0.0500004 0.00109988
0.5125 -0.0500004 0.00109988
0.525 -0.0500004 0.00109988
0.5375 -0.0500004 0.00109988
0.55 -0.0500004 0.00109988
0.5625 -0.0500004 0.00109988
0.575 -0.0500004 0.00109987
0.5875 -0.0500004 0.00109987
0.6 -0.0500004 0.00109987
0.6125 -0.0500004 0.00109987
0.625 -0.0500004 0.00109987
0.6375 -0.0500004 0.00109987
0.65 -0.0500004 0.00109987
0.6625 -0.0500004 0.00109987
0.675 -0.0500004 0.00109987
0.6875 -0.0500004 0.00109987
0.7 -0.0500004 0.00109987
0.7125 -0.0500004 0.00109987
0.725 -0.0500004 0.00109987
0.7375 -0.0500004 0.00109987
0.75 -0.0500004 0.00109987
0.7625 -0.0500004 0.00109987
0.775 -0.0500004 0.00109987
0.7875 -0.0500004 0.00109987
0.8 -0.0500004 0.00109987
0.8125 -0.0500004 0.00109987
0.825 -0.0500004 0.00109987
0.8375 -0.0500004 0.00109987
0.85 -0.0500004 0.00109987
0.8625 -0.0500004 0.00109987
0.875 -0.0500004 0.00109987
0.8875 -0.0500004 0.00109987
0.9 -0.0500004 0.00109987
0.9125 -0.0500005 0.00109988
0.925 -0.0500005 0.00109988
0.9375 -0.0500005 0.00109988
0.95 -0.0500005 0.00109988
0.9625 -0.0500005 0.00109988
0.975 -0.0500005 0.00109988
0.9875 -0.0500005 0.00109988
1 -0.0500005 0.00109988
1.0125 -0.0500005 0.00109988
1.025 -0.0500005 0.00109988
1.0375 -0.0500005 0.00109988
1.05 -0.0500005 0.00109988
1.0625 -0.0500005 0.00109988
1.075 -0.0500005 0.00109988
1.0875 -0.0500005 0.00109988
1.1 -0.0500005 0.00109988
1.1125 -0.0500005 0.00109988
1.125 -0.0500005 0.00109988
1.1375 -0.0500005 0.00109988
1.15 -0.0500005 0.00109988
1.1625 -0.0500005 0.00109988
1.175 -0.0500005 0.00109988
1.1875 -0.0500005 0.00109988
1.2 -0.0500005 0.00109988
1.2125 -0.0500005 0.00109988
1.225 -0.0500005 0.00109988
1.2375 -0.0500005 0.00109989
1.25 -0.0500005 0.00109989
1.2625 -0.0500005 0.00109989
1.275 -0.0500005 0.00109989
1.2875 -0.0500005 0.00109989
1.3 -0.0500005 0.00109989
1.3125 -0.0500005 0.00109989
1.325 -0.0500005 0.00109989
1.3375 -0.0500005 0.00109989
1.35 -0.0500005 0.00109989
1.3625 -0.0500005 0.00109989
1.375 -0.0500005 0.00109989
1.3875 -0.0500005 0.00109989
1.4 -0.0500005 0.00109989
1.4125 -0.0500005 0.00109989
1.425 -0.0500005 0.00109989
1.4375 -0.0500005 0.0010999
1.45 -0.0500005 0.0010999
1.4625 -0.0500005 0.0010999
1.475 -0.0500005 0.0010999
1.4875 -0.0500005 0.0010999
1.5 -0.0500006 0.0010999
1.5125 -0.0500006 0.0010999
1.525 -0.0500006 0.0010999
1.5375 -0.0500006 0.0010999
1.55 -0.0500006 0.0010999
1.5625 -0.0500006 0.0010999
1.575 -0.0500006 0.0010999
1.5875 -0.0500006 0.0010999
1.6 -0.0500006 0.0010999
1.6125 -0.0500006 0.00109991
1.625 -0.0500006 0.00109991
1.6375 -0.0500006 0.00109991
1.65 -0.0500006 0.00109991
1.6625 -0.0500006 0.00109991
1.675 -0.0500006 0.00109991
1.6875 -0.0500006 0.00109991
1.7 -0.0500006 0.00109991
1.7125 -0.0500006 0.00109991
1.725 -0.0500006 0.00109991
1.7375 -0.0500006 0.00109991
1.75 -0.0500006 0.00109991
1.7625 -0.0500006 0.00109992
1.775 -0.0500006 0.00109992
1.7875 -0.0500006 0.00109992
1.8 -0.0500006 0.00109992
1.8125 -0.0500006 0.00109992
1.825 -0.0500006 0.00109992
1.8375 -0.0500006 0.00109992
1.85 -0.0500006 0.00109992
1.8625 -0.0500006 0.00109992
1.875 -0.0500006 0.00109992
1.8875 -0.0500006 0.00109992
1.9 -0.0500006 0.00109992
1.9125 -0.0500006 0.00109993
1.925 -0.0500006 0.00109993
1.9375 -0.0500006 0.00109993
1.95 -0.0500006 0.00109993
1.9625 -0.0500006 0.00109993
1.975 -0.0500006 0.00109993
1.9875 -0.0500006 0.00109993
2 -0.0500006 0.00109993
2.0125 -0.0500006 0.00109993
2.025 -0.0500006 0.00109993
2.0375 -0.0500006 0.00109993
2.05 -0.0500006 0.00109993
2.0625 -0.0500006 0.00109994
2.075 -0.0500006 0.00109994
2.0875 -0.0500006 0.00109994
2.1 -0.0500006 0.00109994
2.1125 -0.0500006 0.00109994
2.125 -0.0500006 0.00109994
2.1375 -0.0500006 0.00109994
2.15 -0.0500006 0.00109994
2.1625 -0.0500006 0.00109994
2.175 -0.0500007 0.00109994
2.1875 -0.0500007 0.00109994
2.2 -0.0500007 0.00109994
2.2125 -0.0500007 0.00109994
2.225 -0.0500007 0.00109995
2.2375 -0.0500007 0.00109995
2.25 -0.0500007 0.00109995
2.2625 -0.0500007 0.00109995
2.275 -0.0500007 0.00109995
2.2875 -0.0500007 0.00109995
2.3 -0.0500007 0.00109995
2.3125 -0.0500007 0.00109995
2.325 -0.0500007 0.00109995
2.3375 -0.0500007 0.00109995
2.35 -0.0500007 0.00109995
2.3625 -0.0500007 0.00109995
2.375 -0.0500007 0.00109995
2.3875 -0.0500007 0.00109996
2.4 -0.0500007 0.00109996
2.4125 -0.0500007 0.00109996
2.425 -0.0500007 0.00109996
2.4375 -0.0500007 0.00109996
2.45 -0.0500007 0.00109996
2.4625 -0.0500007 0.00109996
2.475 -0.0500007 0.00109996
2.4875 -0.0500007 0.00109996
2.5 -0.0500007 0.00109996
2.5125 -0.0500007 0.00109996
2.525 -0.0500007 0.00109996
2.5375 -0.0500007 0.00109996
2.55 -0.0500007 0.00109996
2.5625 -0.0500007 0.00109997
2.575 -0.0500007 0.00109997
2.5875 -0.0500007 0.00109997
2.6 -0.0500007 0.00109997
2.6125 -0.0500007 0.00109997
2.625 -0.0500007 0.00109997
2.6375 -0.0500007 0.00109997
2.65 -0.0500007 0.00109997
2.6625 -0.0500007 0.00109997
2.675 -0.0500007 0.00109997
2.6875 -0.0500007 0.00109997
2.7 -0.0500007 0.00109997
2.7125 -0.0500007 0.00109997
2.725 -0.0500007 0.00109997
2.7375 -0.0500007 0.00109997
2.75 -0.0500007 0.00109997
2.7625 -0.0500007 0.00109998
2.775 -0.0500007 0.00109998
2.7875 -0.0500007 0.00109998
2.8 -0.0500007 0.00109998
2.8125 -0.0500007 0.00109998
2.825 -0.0500007 0.00109998
2.8375 -0.0500007 0.00109998
2.85 -0.0500007 0.00109998
2.8625 -0.0500008 0.00109998
2.875 -0.0500008 0.00109998
2.8875 -0.0500008 0.00109998
2.9 -0.0500008 0.00109998
2.9125 -0.0500008 0.00109998
2.925 -0.0500008 0.00109998
2.9375 -0.0500008 0.00109998
2.95 -0.0500008 0.00109998
2.9625 -0.0500008 0.00109998
2.975 -0.0500008 0.00109998
2.9875 -0.0500008 0.00109998
3 -0.0500008 0.00109998
3.0125 -0.0500008 0.00109999
3.025 -0.0500008 0.00109999
3.0375 -0.0500008 0.00109999
3.05 -0.0500008 0.00109999
3.0625 -0.0500008 0.00109999
3.075 -0.0500008 0.00109999
3.0875 -0.0500008 0.00109999
3.1 -0.0500008 0.00109999
3.1125 -0.0500008 0.00109999
3.125 -0.0500008 0.00109999
3.1375 -0.0500008 0.00109999
3.15 -0.0500008 0.00109999
3.1625 -0.0500008 0.00109999
3.175 -0.0500008 0.00109999
3.1875 -0.0500008 0.00109999
3.2 -0.0500008 0.00109999
3.2125 -0.0500008 0.00109999
3.225 -0.0500008 0.00109999
3.2375 -0.0500008 0.00109999
3.25 -0.0500008 0.00109999
3.2625 -0.0500008 0.00109999
3.275 -0.0500008 0.00109999
3.2875 -0.0500008 0.00109999
3.3 -0.0500008 0.00109999
3.3125 -0.0500008 0.00109999
3.325 -0.0500008 0.00109999
3.3375 -0.0500008 0.00109999
3.35 -0.0500008 0.0011
3.3625 -0.0500008 0.0011
[...]
POINT_DATA 15780
 FIELD attributes 1
U 3 15780 float
30.0002 	-7.01775e-06 	-6.30587e-06 30.0002 	-6.84326e-06 	-6.51454e-06 30.0002 	-6.66878e-06 	-6.72321e-06 30.0002 	-6.4943e-06 	-6.93188e-06 30.0002 	-6.31981e-06 	-7.14055e-06 30.0002 	-6.14533e-06 	-7.34921e-06 30.0004 	-1.23849e-05 	-1.26098e-06 30.0004 	-1.23849e-05 	-1.26098e-06 30.0004 	-1.23849e-05 	-1.26098e-06 30.0004 	-1.23849e-05 	-1.26098e-06 30.0002 	-7.04088e-08 	-6.84367e-06 30.0005 	-1.07088e-05 	-1.68702e-06 30.0005 	-1.07088e-05 	-1.68702e-06 30.0005 	-1.07088e-05 	-1.68702e-06 30.0005 	-1.07088e-05 	-1.68702e-06 30.0002 	-7.20942e-08 	-6.59607e-06 30.0005 	-9.95826e-06 	-2.0802e-06 30.0005 	-9.95825e-06 	-2.0802e-06 30.0005 	-9.95825e-06 	-2.0802e-06 30.0005 	-9.95824e-06 	-2.0802e-06 30.0003 	-4.59298e-06 	-6.24726e-06 30.0005 	-9.6915e-06 	-2.34893e-06 30.0005 	-9.69149e-06 	-2.34893e-06 30.0005 	-9.69148e-06 	-2.34893e-06 30.0005 	-9.69147e-06 	-2.34892e-06 30.0003 	-7.57047e-08 	-6.57615e-06 30.0005 	-9.52334e-06 	-2.4978e-06 30.0005 	-9.52333e-06 	-2.4978e-06 30.0005 	-9.52332e-06 	-2.49779e-06 30.0005 	-9.52331e-06 	-2.49779e-06 30.0003 	-7.74715e-08 	-6.52626e-06 30.0005 	-9.38698e-06 	-2.55604e-06 30.0005 	-9.38697e-06 	-2.55604e-06 30.0005 	-9.38696e-06 	-2.55604e-06 30.0005 	-9.38695e-06 	-2.55604e-06 30.0003 	-4.26681e-06 	-6.08528e-06 30.0005 	-9.27955e-06 	-2.55828e-06 30.0005 	-9.27954e-06 	-2.55827e-06 30.0005 	-9.27953e-06 	-2.55827e-06 30.0005 	-9.27952e-06 	-2.55827e-06 30.0003 	-4.19922e-06 	-5.97789e-06 30.0006 	-9.18738e-06 	-2.53041e-06 30.0006 	-9.18737e-06 	-2.53041e-06 30.0006 	-9.18737e-06 	-2.53041e-06 30.0006 	-9.18736e-06 	-2.53041e-06 30.0003 	-8.27903e-08 	-6.20126e-06 30.0006 	-9.09732e-06 	-2.48117e-06 30.0006 	-9.09731e-06 	-2.48117e-06 30.0006 	-9.0973e-06 	-2.48116e-06 30.0006 	-9.09729e-06 	-2.48116e-06 30.0003 	-8.45434e-08 	-6.05423e-06 30.0006 	-9.00486e-06 	-2.4136e-06 30.0006 	-9.00485e-06 	-2.4136e-06 30.0006 	-9.00484e-06 	-2.4136e-06 30.0006 	-9.00483e-06 	-2.41359e-06 30.0003 	-8.62947e-08 	-5.88782e-06 30.0006 	-8.90871e-06 	-2.32972e-06 30.0006 	-8.9087e-06 	-2.32972e-06 30.0006 	-8.90869e-06 	-2.32972e-06 30.0006 	-8.90868e-06 	-2.32971e-06 30.0003 	-3.93782e-06 	-5.36347e-06 30.0006 	-8.80866e-06 	-2.23274e-06 30.0006 	-8.80865e-06 	-2.23274e-06 30.0006 	-8.80864e-06 	-2.23274e-06 30.0006 	-8.80864e-06 	-2.23273e-06 30.0003 	-3.86403e-06 	-5.16476e-06 30.0006 	-8.70439e-06 	-2.12414e-06 30.0006 	-8.70438e-06 	-2.12413e-06 30.0006 	-8.70438e-06 	-2.12413e-06 30.0006 	-8.70437e-06 	-2.12413e-06 30.0003 	-9.15521e-08 	-5.28458e-06 30.0006 	-8.59619e-06 	-2.00508e-06 30.0006 	-8.59618e-06 	-2.00508e-06 30.0006 	-8.59618e-06 	-2.00507e-06 30.0006 	-8.59617e-06 	-2.00507e-06 30.0003 	-3.70441e-06 	-4.7194e-06 30.0007 	-8.48481e-06 	-1.87668e-06 30.0007 	-8.4848e-06 	-1.87668e-06 30.0007 	-8.48479e-06 	-1.87668e-06 30.0007 	-8.48479e-06 	-1.87668e-06 30.0003 	-3.6193e-06 	-4.47432e-06 30.0007 	-8.37145e-06 	-1.73884e-06 30.0007 	-8.37144e-06 	-1.73883e-06 30.0007 	-8.37144e-06 	-1.73883e-06 30.0007 	-8.37143e-06 	-1.73883e-06 30.0004 	-9.67515e-08 	-4.54319e-06 30.0007 	-8.25984e-06 	-1.59803e-06 30.0007 	-8.25984e-06 	-1.59802e-06 30.0007 	-8.25983e-06 	-1.59802e-06 30.0007 	-8.25983e-06 	-1.59802e-06 30.0004 	-9.84718e-08 	-4.27124e-06 30.0007 	-8.14782e-06 	-1.46322e-06 30.0007 	-8.14781e-06 	-1.46322e-06 30.0007 	-8.14781e-06 	-1.46322e-06 30.0007 	-8.1478e-06 	-1.46322e-06 30.0004 	-1.00189e-07 	-3.98927e-06 30.0007 	-8.01972e-06 	-1.32071e-06 30.0007 	-8.01972e-06 	-1.32071e-06 30.0007 	-8.01971e-06 	-1.32071e-06 30.0007 	-8.01971e-06 	-1.32071e-06 30.0004 	-3.25087e-06 	-3.37795e-06 30.0007 	-7.8809e-06 	-1.168e-06 30.0007 	-7.8809e-06 	-1.168e-06 30.0007 	-7.88089e-06 	-1.168e-06 30.0007 	-7.88089e-06 	-1.168e-06 30.0004 	-1.03585e-07 	-3.40288e-06 30.0007 	-7.74495e-06 	-1.00787e-06 30.0007 	-7.74495e-06 	-1.00787e-06 30.0007 	-7.74494e-06 	-1.00787e-06 30.0007 	-7.74494e-06 	-1.00787e-06 30.0004 	-1.05277e-07 	-3.10327e-06 30.0007 	-7.61079e-06 	-8.41851e-07 30.0007 	-7.61079e-06 	-8.41851e-07 30.0007 	-7.61078e-06 	-8.41851e-07 30.0007 	-7.61078e-06 	-8.41851e-07 30.0004 	-2.93166e-06 	-2.48789e-06 30.0007 	-7.47499e-06 	-6.70198e-07 30.0007 	-7.47499e-06 	-6.70198e-07 30.0007 	-7.47498e-06 	-6.70197e-07 30.0007 	-7.47498e-06 	-6.70197e-07 30.0004 	-2.82516e-06 	-2.18313e-06 30.0007 	-7.34282e-06 	-4.97042e-07 30.0007 	-7.34282e-06 	-4.97042e-07 30.0007 	-7.34282e-06 	-4.97042e-07 30.0007 	-7.34282e-06 	-4.97042e-07 30.0004 	-1.10311e-07 	-2.17111e-06 30.0007 	-7.21499e-06 	-3.17315e-07 30.0007 	-7.21499e-06 	-3.17315e-07 30.0007 	-7.21499e-06 	-3.17315e-07 30.0007 	-7.21499e-06 	-3.17315e-07 30.0004 	-1.11969e-07 	-1.85337e-06 30.0007 	-7.09823e-06 	-1.3821e-07 30.0007 	-7.09822e-06 	-1.3821e-07 30.0007 	-7.09822e-06 	-1.3821e-07 30.0007 	-7.09822e-06 	-1.3821e-07 30.0004 	-1.13613e-07 	-1.54903e-06 30.0007 	-6.98487e-06 	4.08571e-08 30.0007 	-6.98487e-06 	4.08571e-08 30.0007 	-6.98487e-06 	4.08571e-08 30.0007 	-6.98487e-06 	4.08571e-08 30.0004 	-2.43865e-06 	-9.58517e-07 30.0007 	-6.87125e-06 	2.14672e-07 30.0007 	-6.87125e-06 	2.14672e-07 30.0007 	-6.87125e-06 	2.14672e-07 30.0007 	-6.87125e-06 	2.14672e-07 30.0004 	-2.34702e-06 	-6.82316e-07 30.0007 	-6.75304e-06 	3.90722e-07 30.0007 	-6.75304e-06 	3.90722e-07 30.0007 	-6.75304e-06 	3.90722e-07 30.0007 	-6.75304e-06 	3.90722e-07 30.0004 	-1.18522e-07 	-7.09776e-07 30.0007 	-6.6425e-06 	5.64375e-07 30.0007 	-6.6425e-06 	5.64375e-07 30.0007 	-6.6425e-06 	5.64375e-07 30.0007 	-6.6425e-06 	5.64375e-07 30.0004 	-2.16664e-06 	-1.45458e-07 30.0007 	-6.5355e-06 	7.27402e-07 30.0007 	-6.5355e-06 	7.27403e-07 30.0007 	-6.5355e-06 	7.27403e-07 30.0007 	-6.5355e-06 	7.27403e-07 30.0004 	-2.08096e-06 	1.1382e-07 30.0007 	-6.43017e-06 	8.78842e-07 30.0007 	-6.43017e-06 	8.78842e-07 30.0007 	-6.43017e-06 	8.78842e-07 30.0007 	-6.43018e-06 	8.78842e-07 30.0004 	-1.23398e-07 	7.05702e-08 30.0007 	-6.32257e-06 	1.01779e-06 30.0007 	-6.32257e-06 	1.01779e-06 30.0007 	-6.32257e-06 	1.01779e-06 30.0007 	-6.32258e-06 	1.01779e-06 30.0004 	-1.24981e-07 	3.15799e-07 30.0007 	-6.21618e-06 	1.14062e-06 30.0007 	-6.21619e-06 	1.14062e-06 30.0007 	-6.21619e-06 	1.14062e-06 30.0007 	-6.21619e-06 	1.14062e-06 30.0004 	-1.26561e-07 	5.45515e-07 30.0007 	-6.1149e-06 	1.25632e-06 30.0007 	-6.11491e-06 	1.25632e-06 30.0007 	-6.11491e-06 	1.25632e-06 30.0007 	-6.11491e-06 	1.25632e-06 30.0004 	-1.76413e-06 	1.03206e-06 30.0007 	-6.02216e-06 	1.37127e-06 30.0007 	-6.02217e-06 	1.37127e-06 30.0007 	-6.02217e-06 	1.37127e-06 30.0007 	-6.02217e-06 	1.37127e-06 30.0004 	-1.29652e-07 	9.36931e-07 30.0007 	-5.9425e-06 	1.4885e-06 30.0007 	-5.9425e-06 	1.4885e-06 30.0007 	-5.9425e-06 	1.4885e-06 30.0007 	-5.94251e-06 	1.4885e-06 30.0004 	-1.3115e-07 	1.10455e-06 30.0007 	-5.87128e-06 	1.59289e-06 30.0007 	-5.87128e-06 	1.59289e-06 30.0007 	-5.87128e-06 	1.59289e-06 30.0007 	-5.87129e-06 	1.59289e-06 30.0004 	-1.59124e-06 	1.53875e-06 30.0007 	-5.80166e-06 	1.67932e-06 30.0007 	-5.80166e-06 	1.67932e-06 30.0007 	-5.80167e-06 	1.67932e-06 30.0007 	-5.80167e-06 	1.67932e-06 30.0003 	-1.54403e-06 	1.6782e-06 30.0007 	-5.73357e-06 	1.75011e-06 30.0007 	-5.73357e-06 	1.75011e-06 30.0007 	-5.73358e-06 	1.75011e-06 30.0007 	-5.73358e-06 	1.75011e-06 30.0003 	-1.35854e-07 	1.52471e-06 30.0006 	-5.66843e-06 	1.80981e-06 30.0006 	-5.66843e-06 	1.80981e-06 30.0006 	-5.66844e-06 	1.80981e-06 30.0006 	-5.66844e-06 	1.80981e-06 30.0003 	-1.3741e-07 	1.63226e-06 30.0006 	-5.60835e-06 	1.85994e-06 30.0006 	-5.60836e-06 	1.85994e-06 30.0006 	-5.60836e-06 	1.85994e-06 30.0006 	-5.60837e-06 	1.85994e-06 30.0003 	-1.3888e-07 	1.72399e-06 30.0006 	-5.55406e-06 	1.90043e-06 30.0006 	-5.55406e-06 	1.90043e-06 30.0006 	-5.55407e-06 	1.90044e-06 30.0006 	-5.55407e-06 	1.90044e-06 30.0003 	-1.38872e-06 	2.07102e-06 30.0006 	-5.50522e-06 	1.93109e-06 30.0006 	-5.50523e-06 	1.9311e-06 30.0006 	-5.50523e-06 	1.9311e-06 30.0006 	-5.50524e-06 	1.9311e-06 30.0003 	-1.36169e-06 	2.13095e-06 30.0006 	-5.46149e-06 	1.95183e-06 30.0006 	-5.46149e-06 	1.95183e-06 30.0006 	-5.4615e-06 	1.95184e-06 30.0006 	-5.4615e-06 	1.95184e-06 30.0003 	-1.42929e-07 	1.90825e-06 30.0006 	-5.42271e-06 	1.96278e-06 30.0006 	-5.42272e-06 	1.96278e-06 30.0006 	-5.42272e-06 	1.96278e-06 30.0006 	-5.42272e-06 	1.96279e-06 30.0003 	-1.32332e-06 	2.20765e-06 30.0006 	-5.38875e-06 	1.96431e-06 30.0006 	-5.38876e-06 	1.96432e-06 30.0006 	-5.38876e-06 	1.96432e-06 30.0006 	-5.38876e-06 	1.96432e-06 30.0003 	-1.31155e-06 	2.22553e-06 30.0006 	-5.35958e-06 	1.95691e-06 30.0006 	-5.35959e-06 	1.95692e-06 30.0006 	-5.35959e-06 	1.95692e-06 30.0006 	-5.35959e-06 	1.95692e-06 30.0003 	-1.46828e-07 	1.96616e-06 30.0005 	-5.33512e-06 	1.94112e-06 30.0005 	-5.33512e-06 	1.94112e-06 30.0005 	-5.33513e-06 	1.94112e-06 30.0005 	-5.33513e-06 	1.94112e-06 30.0003 	-1.48092e-07 	1.96056e-06 30.0005 	-5.31513e-06 	1.91793e-06 30.0005 	-5.31513e-06 	1.91793e-06 30.0005 	-5.31514e-06 	1.91793e-06 30.0005 	-5.31514e-06 	1.91793e-06 30.0003 	-1.4931e-07 	1.94423e-06 30.0005 	-5.29954e-06 	1.888e-06 30.0005 	-5.29954e-06 	1.888e-06 30.0005 	-5.29955e-06 	1.888e-06 30.0005 	-5.29955e-06 	1.888e-06 30.0003 	-1.30901e-06 	2.179e-06 30.0005 	-5.2882e-06 	1.8519e-06 30.0005 	-5.2882e-06 	1.8519e-06 30.0005 	-5.28821e-06 	1.85191e-06 30.0005 	-5.28821e-06 	1.85191e-06 30.0003 	-1.51664e-07 	1.88229e-06 30.0005 	-5.28093e-06 	1.81008e-06 30.0005 	-5.28094e-06 	1.81008e-06 30.0005 	-5.28094e-06 	1.81008e-06 30.0005 	-5.28094e-06 	1.81008e-06 30.0003 	-1.52789e-07 	1.83817e-06 30.0005 	-5.27749e-06 	1.76316e-06 30.0005 	-5.2775e-06 	1.76316e-06 30.0005 	-5.2775e-06 	1.76316e-06 30.0005 	-5.27751e-06 	1.76316e-06 30.0003 	-1.34824e-06 	2.04408e-06 30.0005 	-5.27767e-06 	1.71163e-06 30.0005 	-5.27768e-06 	1.71163e-06 30.0005 	-5.27768e-06 	1.71163e-06 30.0005 	-5.27768e-06 	1.71163e-06 30.0003 	-1.36831e-06 	1.98424e-06 30.0005 	-5.28125e-06 	1.656e-06 30.0005 	-5.28125e-06 	1.656e-06 30.0005 	-5.28126e-06 	1.656e-06 30.0005 	-5.28126e-06 	1.656e-06 30.0002 	-1.56017e-07 	1.6628e-06 30.0005 	-5.28806e-06 	1.59669e-06 30.0005 	-5.28806e-06 	1.59669e-06 30.0005 	-5.28806e-06 	1.59669e-06 30.0005 	-5.28807e-06 	1.59669e-06 30.0002 	-1.57076e-07 	1.59256e-06 30.0004 	-5.29802e-06 	1.53416e-06 30.0004 	-5.29802e-06 	1.53416e-06 30.0004 	-5.29802e-06 	1.53417e-06 30.0004 	-5.29803e-06 	1.53417e-06 30.0002 	-1.58155e-07 	1.51769e-06 30.0004 	-5.31097e-06 	1.4689e-06 30.0004 	-5.31097e-06 	1.46891e-06 30.0004 	-5.31098e-06 	1.46891e-06 30.0004 	-5.31098e-06 	1.46891e-06 30.0002 	-1.47999e-06 	1.69063e-06 30.0004 	-5.32653e-06 	1.40145e-06 30.0004 	-5.32653e-06 	1.40145e-06 30.0004 	-5.32653e-06 	1.40146e-06 30.0004 	-5.32653e-06 	1.40146e-06 30.0002 	-1.51452e-06 	1.60714e-06 30.0004 	-5.34443e-06 	1.33221e-06 30.0004 	-5.34444e-06 	1.33221e-06 30.0004 	-5.34444e-06 	1.33221e-06 30.0004 	-5.34444e-06 	1.33221e-06 30.0002 	-1.61426e-07 	1.27187e-06 30.0004 	-5.36447e-06 	1.2615e-06 30.0004 	-5.36447e-06 	1.2615e-06 30.0004 	-5.36448e-06 	1.2615e-06 30.0004 	-5.36448e-06 	1.2615e-06 30.0002 	-1.58986e-06 	1.4325e-06 30.0004 	-5.3863e-06 	1.18983e-06 30.0004 	-5.3863e-06 	1.18983e-06 30.0004 	-5.3863e-06 	1.18983e-06 30.0004 	-5.3863e-06 	1.18983e-06 30.0002 	-1.63035e-06 	1.34242e-06 30.0004 	-5.40993e-06 	1.1175e-06 30.0004 	-5.40993e-06 	1.1175e-06 30.0004 	-5.40994e-06 	1.1175e-06 30.0004 	-5.40994e-06 	1.1175e-06 30.0002 	-1.64458e-07 	1.00609e-06 30.0004 	-5.43506e-06 	1.04483e-06 30.0004 	-5.43507e-06 	1.04483e-06 30.0004 	-5.43507e-06 	1.04483e-06 30.0004 	-5.43507e-06 	1.04483e-06 30.0002 	-1.65406e-07 	9.15621e-07 30.0004 	-5.46074e-06 	9.72287e-07 30.0004 	-5.46074e-06 	9.72288e-07 30.0004 	-5.46074e-06 	9.72288e-07 30.0004 	-5.46074e-06 	9.72289e-07 30.0002 	-1.66313e-07 	8.25e-07 30.0004 	-5.4868e-06 	8.99512e-07 30.0004 	-5.4868e-06 	8.99512e-07 30.0004 	-5.4868e-06 	8.99512e-07 30.0004 	-5.48681e-06 	8.99512e-07 30.0002 	-1.80726e-06 	9.75432e-07 30.0004 	-5.5136e-06 	8.25977e-07 30.0004 	-5.5136e-06 	8.25978e-07 30.0004 	-5.51361e-06 	8.25978e-07 30.0004 	-5.51361e-06 	8.25978e-07 30.0002 	-1.68028e-07 	6.43633e-07 30.0003 	-5.54336e-06 	7.52017e-07 30.0003 	-5.54336e-06 	7.52017e-07 30.0003 	-5.54336e-06 	7.52017e-07 30.0003 	-5.54336e-06 	7.52018e-07 30.0002 	-1.68851e-07 	5.52639e-07 30.0003 	-5.57785e-06 	6.77473e-07 30.0003 	-5.57785e-06 	6.77473e-07 30.0003 	-5.57785e-06 	6.77473e-07 30.0003 	-5.57785e-06 	6.77473e-07 30.0002 	-1.95564e-06 	7.01325e-07 30.0003 	-5.61472e-06 	6.0441e-07 30.0003 	-5.61472e-06 	6.04411e-07 30.0003 	-5.61472e-06 	6.04411e-07 30.0003 	-5.61472e-06 	6.04411e-07 30.0002 	-2.00783e-06 	6.11694e-07 30.0003 	-5.6508e-06 	5.34691e-07 30.0003 	-5.6508e-06 	5.34691e-07 30.0003 	-5.6508e-06 	5.34691e-07 30.0003 	-5.6508e-06 	5.34691e-07 30.0002 	-1.71344e-07 	2.80946e-07 30.0003 	-5.68191e-06 	4.67667e-07 30.0003 	-5.68191e-06 	4.67667e-07 30.0003 	-5.68191e-06 	4.67668e-07 30.0003 	-5.68192e-06 	4.67668e-07 30.0002 	-1.72174e-07 	1.97331e-07 30.0003 	-5.71035e-06 	4.03222e-07 30.0003 	-5.71035e-06 	4.03222e-07 30.0003 	-5.71035e-06 	4.03222e-07 30.0003 	-5.71035e-06 	4.03222e-07 30.0002 	-1.72975e-07 	1.16401e-07 30.0003 	-5.73852e-06 	3.39262e-07 30.0003 	-5.73852e-06 	3.39262e-07 30.0003 	-5.73852e-06 	3.39262e-07 30.0003 	-5.73852e-06 	3.39262e-07 30.0002 	-2.2011e-06 	2.74095e-07 30.0003 	-5.7665e-06 	2.75296e-07 30.0003 	-5.7665e-06 	2.75296e-07 30.0003 	-5.7665e-06 	2.75296e-07 30.0003 	-5.7665e-06 	2.75296e-07 30.0002 	-2.24803e-06 	1.96351e-07 30.0003 	-5.79323e-06 	2.10808e-07 30.0003 	-5.79323e-06 	2.10808e-07 30.0003 	-5.79323e-06 	2.10808e-07 30.0003 	-5.79323e-06 	2.10808e-07 30.0002 	-1.7514e-07 	-1.09148e-07 30.0003 	-5.82124e-06 	1.48797e-07 30.0003 	-5.82124e-06 	1.48797e-07 30.0003 	-5.82124e-06 	1.48797e-07 30.0003 	-5.82124e-06 	1.48797e-07 30.0002 	-2.3418e-06 	4.46653e-08 30.0003 	-5.8505e-06 	9.0004e-08 30.0003 	-5.8505e-06 	9.0004e-08 30.0003 	-5.8505e-06 	9.0004e-08 30.0003 	-5.8505e-06 	9.0004e-08 30.0002 	-2.3891e-06 	-2.9111e-08 30.0003 	-5.88093e-06 	3.48338e-08 30.0003 	-5.88093e-06 	3.48338e-08 30.0003 	-5.88093e-06 	3.48338e-08 30.0003 	-5.88093e-06 	3.48338e-08 30.0002 	-1.77137e-07 	-3.30779e-07 30.0003 	-5.91265e-06 	-1.70545e-08 30.0003 	-5.91265e-06 	-1.70545e-08 30.0003 	-5.91265e-06 	-1.70545e-08 30.0003 	-5.91265e-06 	-1.70545e-08 30.0002 	-1.77759e-07 	-4.01814e-07 30.0003 	-5.94578e-06 	-6.90349e-08 30.0003 	-5.94578e-06 	-6.90349e-08 30.0003 	-5.94578e-06 	-6.90349e-08 30.0003 	-5.94578e-06 	-6.90349e-08 30.0002 	-1.78368e-07 	-4.67085e-07 30.0003 	-5.97775e-06 	-1.23296e-07 30.0003 	-5.97775e-06 	-1.23296e-07 30.0003 	-5.97775e-06 	-1.23296e-07 30.0003 	-5.97775e-06 	-1.23296e-07 30.0002 	-2.58063e-06 	-3.01388e-07 30.0003 	-6.00553e-06 	-1.77941e-07 30.0003 	-6.00553e-06 	-1.77941e-07 30.0003 	-6.00553e-06 	-1.77941e-07 30.0003 	-6.00553e-06 	-1.77941e-07 30.0002 	-1.79558e-07 	-5.84899e-07 30.0003 	-6.02966e-06 	-2.292e-07 30.0003 	-6.02966e-06 	-2.292e-07 30.0003 	-6.02966e-06 	-2.292e-07 30.0003 	-6.02966e-06 	-2.292e-07 30.0002 	-1.80149e-07 	-6.42163e-07 30.0003 	-6.05291e-06 	-2.76162e-07 30.0003 	-6.05291e-06 	-2.76162e-07 30.0003 	-6.05291e-06 	-2.76162e-07 30.0003 	-6.05291e-06 	-2.76162e-07 30.0002 	-2.70871e-06 	-4.78992e-07 30.0003 	-6.07677e-06 	-3.19639e-07 30.0003 	-6.07677e-06 	-3.19639e-07 30.0003 	-6.07677e-06 	-3.19639e-07 30.0003 	-6.07677e-06 	-3.19639e-07 30.0002 	-2.74974e-06 	-5.34037e-07 30.0003 	-6.101e-06 	-3.61176e-07 30.0003 	-6.101e-06 	-3.61176e-07 30.0003 	-6.101e-06 	-3.61176e-07 30.0003 	-6.101e-06 	-3.61176e-07 30.0002 	-1.81896e-07 	-8.03804e-07 30.0003 	-6.12505e-06 	-4.01373e-07 30.0003 	-6.12504e-06 	-4.01372e-07 30.0003 	-6.12504e-06 	-4.01372e-07 30.0003 	-6.12504e-06 	-4.01372e-07 30.0001 	-1.82449e-07 	-8.53124e-07 30.0003 	-6.14846e-06 	-4.40367e-07 30.0003 	-6.14846e-06 	-4.40367e-07 30.0003 	-6.14846e-06 	-4.40367e-07 30.0003 	-6.14846e-06 	-4.40366e-07 30.0001 	-1.8299e-07 	-9.00334e-07 30.0003 	-6.17112e-06 	-4.77983e-07 30.0003 	-6.17112e-06 	-4.77983e-07 30.0003 	-6.17112e-06 	-4.77983e-07 30.0003 	-6.17112e-06 	-4.77982e-07 30.0001 	-2.90924e-06 	-7.31468e-07 30.0003 	-6.19293e-06 	-5.14198e-07 30.0003 	-6.19292e-06 	-5.14198e-07 30.0003 	-6.19292e-06 	-5.14197e-07 30.0003 	-6.19292e-06 	-5.14197e-07 30.0001 	-2.94712e-06 	-7.75596e-07 30.0003 	-6.21384e-06 	-5.48823e-07 30.0003 	-6.21384e-06 	-5.48823e-07 30.0003 	-6.21383e-06 	-5.48823e-07 30.0003 	-6.21383e-06 	-5.48823e-07 30.0001 	-1.8452e-07 	-1.02955e-06 30.0003 	-6.23394e-06 	-5.82038e-07 30.0003 	-6.23394e-06 	-5.82038e-07 30.0003 	-6.23394e-06 	-5.82038e-07 30.0003 	-6.23394e-06 	-5.82038e-07 30.0001 	-3.02012e-06 	-8.57483e-07 30.0003 	-6.25322e-06 	-6.13878e-07 30.0003 	-6.25322e-06 	-6.13878e-07 30.0003 	-6.25322e-06 	-6.13877e-07 30.0003 	-6.25322e-06 	-6.13877e-07 30.0001 	-3.05522e-06 	-8.95492e-07 30.0003 	-6.27172e-06 	-6.44403e-07 30.0003 	-6.27172e-06 	-6.44403e-07 30.0003 	-6.27172e-06 	-6.44403e-07 30.0003 	-6.27171e-06 	-6.44403e-07 30.0001 	-1.85952e-07 	-1.14086e-06 30.0003 	-6.28943e-06 	-6.73602e-07 30.0003 	-6.28943e-06 	-6.73602e-07 30.0003 	-6.28943e-06 	-6.73602e-07 30.0003 	-6.28943e-06 	-6.73602e-07 30.0001 	-1.86402e-07 	-1.17462e-06 30.0003 	-6.30646e-06 	-7.01419e-07 30.0003 	-6.30646e-06 	-7.01419e-07 30.0003 	-6.30646e-06 	-7.01419e-07 30.0003 	-6.30646e-06 	-7.01419e-07 30.0001 	-1.86855e-07 	-1.2067e-06 30.0003 	-6.32256e-06 	-7.27846e-07 30.0003 	-6.32256e-06 	-7.27845e-07 30.0003 	-6.32255e-06 	-7.27845e-07 30.0003 	-6.32255e-06 	-7.27845e-07 30.0001 	-3.18667e-06 	-1.03101e-06 30.0003 	-6.33783e-06 	-7.52959e-07 30.0003 	-6.33783e-06 	-7.52958e-07 30.0003 	-6.33782e-06 	-7.52958e-07 30.0003 	-6.33782e-06 	-7.52958e-07 30.0001 	-1.87726e-07 	-1.26599e-06 30.0003 	-6.35234e-06 	-7.76928e-07 30.0003 	-6.35234e-06 	-7.76927e-07 30.0003 	-6.35234e-06 	-7.76927e-07 30.0003 	-6.35234e-06 	-7.76927e-07 30.0001 	-1.88138e-07 	-1.29334e-06 30.0003 	-6.36616e-06 	-7.99797e-07 30.0003 	-6.36616e-06 	-7.99797e-07 30.0003 	-6.36616e-06 	-7.99797e-07 30.0003 	-6.36616e-06 	-7.99797e-07 30.0001 	-3.27608e-06 	-1.11606e-06 30.0003 	-6.37925e-06 	-8.21523e-07 30.0003 	-6.37925e-06 	-8.21522e-07 30.0003 	-6.37925e-06 	-8.21522e-07 30.0003 	-6.37925e-06 	-8.21522e-07 30.0001 	-3.30419e-06 	-1.14154e-06 30.0003 	-6.39155e-06 	-8.4196e-07 30.0003 	-6.39155e-06 	-8.4196e-07 30.0003 	-6.39155e-06 	-8.4196e-07 30.0003 	-6.39154e-06 	-8.4196e-07 30.0001 	-1.89342e-07 	-1.36689e-06 30.0003 	-6.40318e-06 	-8.61351e-07 30.0003 	-6.40318e-06 	-8.61351e-07 30.0003 	-6.40318e-06 	-8.61351e-07 30.0003 	-6.40318e-06 	-8.6135e-07 30.0001 	-1.89729e-07 	-1.38876e-06 30.0003 	-6.41414e-06 	-8.79789e-07 30.0003 	-6.41414e-06 	-8.79789e-07 30.0003 	-6.41413e-06 	-8.79788e-07 30.0003 	-6.41413e-06 	-8.79788e-07 30.0001 	-1.9011e-07 	-1.40941e-06 30.0003 	-6.42439e-06 	-8.97269e-07 30.0003 	-6.42439e-06 	-8.97269e-07 30.0003 	-6.42438e-06 	-8.97268e-07 30.0003 	-6.42438e-06 	-8.97268e-07 30.0001 	-3.40851e-06 	-1.23054e-06 30.0003 	-6.43397e-06 	-9.13854e-07 30.0003 	-6.43396e-06 	-9.13854e-07 30.0003 	-6.43396e-06 	-9.13854e-07 30.0003 	-6.43396e-06 	-9.13853e-07 30.0001 	-3.43264e-06 	-1.24986e-06 30.0003 	-6.44284e-06 	-9.29541e-07 30.0003 	-6.44284e-06 	-9.2954e-07 30.0003 	-6.44284e-06 	-9.2954e-07 30.0003 	-6.44284e-06 	-9.2954e-07 30.0001 	-1.91193e-07 	-1.46458e-06 30.0003 	-6.45112e-06 	-9.44395e-07 30.0003 	-6.45111e-06 	-9.44394e-07 30.0003 	-6.45111e-06 	-9.44394e-07 30.0003 	-6.45111e-06 	-9.44394e-07 30.0001 	-3.4787e-06 	-1.28535e-06 30.0003 	-6.45879e-06 	-9.58396e-07 30.0003 	-6.45879e-06 	-9.58396e-07 30.0003 	-6.45879e-06 	-9.58395e-07 30.0003 	-6.45879e-06 	-9.58395e-07 30.0001 	-3.50075e-06 	-1.30162e-06 30.0003 	-6.46587e-06 	-9.7169e-07 30.0003 	-6.46587e-06 	-9.7169e-07 30.0003 	-6.46587e-06 	-9.7169e-07 30.0003 	-6.46587e-06 	-9.71689e-07 30.0001 	-1.9221e-07 	-1.5106