# vtk DataFile Version 2.0
track0
ASCII
DATASET POLYDATA
POINTS 15780 float
-1.001 -0.05 0.0011
-1.0008 -0.05 0.0011
-1.0006 -0.05 0.0011
-1.0004 -0.05 0.0011
-1.0002 -0.05 0.0011
-1 -0.05 0.0011
-0.9875 -0.05 0.0011
-0.975 -0.05 0.0011
-0.9625 -0.05 0.0011
-0.95 -0.05 0.0011
-0.9375 -0.05 0.00109999
-0.925 -0.05 0.00109999
-0.9125 -0.05 0.00109999
-0.9 -0.05 0.00109999
-0.8875 -0.05 0.00109999
-0.875 -0.05 0.00109999
-0.8625 -0.05 0.00109999
-0.85 -0.05 0.00109999
-0.8375 -0.05 0.00109998
-0.825 -0.0500001 0.00109998
-0.8125 -0.0500001 0.00109998
-0.8 -0.0500001 0.00109998
-0.7875 -0.0500001 0.00109998
-0.775 -0.0500001 0.00109998
-0.7625 -0.0500001 0.00109998
-0.75 -0.0500001 0.00109998
-0.7375 -0.0500001 0.00109997
-0.725 -0.0500001 0.00109997
-0.7125 -0.0500001 0.00109997
-0.7 -0.0500001 0.00109997
-0.6875 -0.0500001 0.00109997
-0.675 -0.0500001 0.00109997
-0.6625 -0.0500001 0.00109997
-0.65 -0.0500001 0.00109996
-0.6375 -0.0500001 0.00109996
-0.625 -0.0500001 0.00109996
-0.6125 -0.0500001 0.00109996
-0.6 -0.0500001 0.00109996
-0.5875 -0.0500001 0.00109996
-0.575 -0.0500001 0.00109996
-0.5625 -0.0500001 0.00109996
-0.55 -0.0500001 0.00109995
-0.5375 -0.0500001 0.00109995
-0.525 -0.0500001 0.00109995
-0.5125 -0.0500001 0.00109995
-0.5 -0.0500001 0.00109995
-0.4875 -0.0500001 0.00109995
-0.475 -0.0500001 0.00109995
-0.4625 -0.0500001 0.00109994
-0.45 -0.0500002 0.00109994
-0.4375 -0.0500002 0.00109994
-0.425 -0.0500002 0.00109994
-0.4125 -0.0500002 0.00109994
-0.4 -0.0500002 0.00109994
-0.3875 -0.0500002 0.00109994
-0.375 -0.0500002 0.00109994
-0.3625 -0.0500002 0.00109993
-0.35 -0.0500002 0.00109993
-0.3375 -0.0500002 0.00109993
-0.325 -0.0500002 0.00109993
-0.3125 -0.0500002 0.00109993
-0.3 -0.0500002 0.00109993
-0.2875 -0.0500002 0.00109993
-0.275 -0.0500002 0.00109993
-0.2625 -0.0500002 0.00109992
-0.25 -0.0500002 0.00109992
-0.2375 -0.0500002 0.00109992
-0.225 -0.0500002 0.00109992
-0.2125 -0.0500002 0.00109992
-0.2 -0.0500002 0.00109992
-0.1875 -0.0500002 0.00109992
-0.175 -0.0500002 0.00109992
-0.1625 -0.0500002 0.00109991
-0.15 -0.0500002 0.00109991
-0.1375 -0.0500002 0.00109991
-0.125 -0.0500002 0.00109991
-0.1125 -0.0500002 0.00109991
-0.1 -0.0500002 0.00109991
-0.0875 -0.0500002 0.00109991
-0.075 -0.0500002 0.00109991
-0.0625 -0.0500002 0.00109991
-0.05 -0.0500003 0.00109991
-0.0375 -0.0500003 0.0010999
-0.025 -0.0500003 0.0010999
-0.0125 -0.0500003 0.0010999
2.10607e-13 -0.0500003 0.0010999
0.0125 -0.0500003 0.0010999
0.025 -0.0500003 0.0010999
0.0375 -0.0500003 0.0010999
0.05 -0.0500003 0.0010999
0.0625 -0.0500003 0.0010999
0.075 -0.0500003 0.0010999
0.0875 -0.0500003 0.0010999
0.1 -0.0500003 0.00109989
0.1125 -0.0500003 0.00109989
0.125 -0.0500003 0.00109989
0.1375 -0.0500003 0.00109989
0.15 -0.0500003 0.00109989
0.1625 -0.0500003 0.00109989
0.175 -0.0500003 0.00109989
0.1875 -0.0500003 0.00109989
0.2 -0.0500003 0.00109989
0.2125 -0.0500003 0.00109989
0.225 -0.0500003 0.00109989
0.2375 -0.0500003 0.00109989
0.25 -0.0500003 0.00109989
0.2625 -0.0500003 0.00109988
0.275 -0.0500003 0.00109988
0.2875 -0.0500003 0.00109988
0.3 -0.0500003 0.00109988
0.3125 -0.0500003 0.00109988
0.325 -0.0500003 0.00109988
0.3375 -0.0500003 0.00109988
0.35 -0.0500003 0.00109988
0.3625 -0.0500003 0.00109988
0.375 -0.0500003 0.00109988
0.3875 -0.0500003 0.00109988
0.4 -0.0500004 0.00109988
0.4125 -0.0500004 0.00109988
0.425 -0.0500004 0.00109988
0.4375 -0.0500004 0.00109988
0.45 -0.0500004 0.00109988
0.4625 -0.0500004 0.00109988
0.475 -0.0500004 0.00109988
0.4875 -0.0500004 0.00109988
0.5 -0.0500004 0.00109988
0.5125 -0.0500004 0.00109988
0.525 -0.0500004 0.00109988
0.5375 -0.0500004 0.00109988
0.55 -0.0500004 0.00109988
0.5625 -0.0500004 0.00109988
0.575 -0.0500004 0.00109987
0.5875 -0.0500004 0.00109987
0.6 -0.0500004 0.00109987
0.6125 -0.0500004 0.00109987
0.625 -0.0500004 0.00109987
0.6375 -0.0500004 0.00109987
0.65 -0.0500004 0.00109987
0.6625 -0.0500004 0.00109987
0.675 -0.0500004 0.00109987
0.6875 -0.0500004 0.00109987
0.7 -0.0500004 0.00109987
0.7125 -0.0500004 0.00109987
0.725 -0.0500004 0.00109987
0.7375 -0.0500004 0.00109987
0.75 -0.0500004 0.00109987
0.7625 -0.0500004 0.00109987
0.775 -0.0500004 0.00109987
0.7875 -0.0500004 0.00109987
0.8 -0.0500004 0.00109987
0.8125 -0.0500004 0.00109987
0.825 -0.0500004 0.00109987
0.8375 -0.0500004 0.00109987
0.85 -0.0500004 0.00109987
0.8625 -0.0500004 0.00109987
0.875 -0.0500004 0.00109987
0.8875 -0.0500004 0.00109987
0.9 -0.0500004 0.00109987
0.9125 -0.0500005 0.00109988
0.925 -0.0500005 0.00109988
0.9375 -0.0500005 0.00109988
0.95 -0.0500005 0.00109988
0.9625 -0.0500005 0.00109988
0.975 -0.0500005 0.00109988
0.9875 -0.0500005 0.00109988
1 -0.0500005 0.00109988
1.0125 -0.0500005 0.00109988
1.025 -0.0500005 0.00109988
1.0375 -0.0500005 0.00109988
1.05 -0.0500005 0.00109988
1.0625 -0.0500005 0.00109988
1.075 -0.0500005 0.00109988
1.0875 -0.0500005 0.00109988
1.1 -0.0500005 0.00109988
1.1125 -0.0500005 0.00109988
1.125 -0.0500005 0.00109988
1.1375 -0.0500005 0.00109988
1.15 -0.0500005 0.00109988
1.1625 -0.0500005 0.00109988
1.175 -0.0500005 0.00109988
1.1875 -0.0500005 0.00109988
1.2 -0.0500005 0.00109988
1.2125 -0.0500005 0.00109988
1.225 -0.0500005 0.00109988
1.2375 -0.0500005 0.00109989
1.25 -0.0500005 0.00109989
1.2625 -0.0500005 0.00109989
1.275 -0.0500005 0.00109989
1.2875 -0.0500005 0.00109989
1.3 -0.0500005 0.00109989
1.3125 -0.0500005 0.00109989
1.325 -0.0500005 0.00109989
1.3375 -0.0500005 0.00109989
1.35 -0.0500005 0.00109989
1.3625 -0.0500005 0.00109989
1.375 -0.0500005 0.00109989
1.3875 -0.0500005 0.00109989
1.4 -0.0500005 0.00109989
1.4125 -0.0500005 0.00109989
1.425 -0.0500005 0.00109989
1.4375 -0.0500005 0.0010999
1.45 -0.0500005 0.0010999
1.4625 -0.0500005 0.0010999
1.475 -0.0500005 0.0010999
1.4875 -0.0500005 0.0010999
1.5 -0.0500006 0.0010999
1.5125 -0.0500006 0.0010999
1.525 -0.0500006 0.0010999
1.5375 -0.0500006 0.0010999
1.55 -0.0500006 0.0010999
1.5625 -0.0500006 0.0010999
1.575 -0.0500006 0.0010999
1.5875 -0.0500006 0.0010999
1.6 -0.0500006 0.0010999
1.6125 -0.0500006 0.00109991
1.625 -0.0500006 0.00109991
1.6375 -0.0500006 0.00109991
1.65 -0.0500006 0.00109991
1.6625 -0.0500006 0.00109991
1.675 -0.0500006 0.00109991
1.6875 -0.0500006 0.00109991
1.7 -0.0500006 0.00109991
1.7125 -0.0500006 0.00109991
1.725 -0.0500006 0.00109991
1.7375 -0.0500006 0.00109991
1.75 -0.0500006 0.00109991
1.7625 -0.0500006 0.00109992
1.775 -0.0500006 0.00109992
1.7875 -0.0500006 0.00109992
1.8 -0.0500006 0.00109992
1.8125 -0.0500006 0.00109992
1.825 -0.0500006 0.00109992
1.8375 -0.0500006 0.00109992
1.85 -0.0500006 0.00109992
1.8625 -0.0500006 0.00109992
1.875 -0.0500006 0.00109992
1.8875 -0.0500006 0.00109992
1.9 -0.0500006 0.00109992
1.9125 -0.0500006 0.00109993
1.925 -0.0500006 0.00109993
1.9375 -0.0500006 0.00109993
1.95 -0.0500006 0.00109993
1.9625 -0.0500006 0.00109993
1.975 -0.0500006 0.00109993
1.9875 -0.0500006 0.00109993
2 -0.0500006 0.00109993
2.0125 -0.0500006 0.00109993
2.025 -0.0500006 0.00109993
2.0375 -0.0500006 0.00109993
2.05 -0.0500006 0.00109993
2.0625 -0.0500006 0.00109993
2.075 -0.0500006 0.00109994
2.0875 -0.0500006 0.00109994
2.1 -0.0500006 0.00109994
2.1125 -0.0500006 0.00109994
2.125 -0.0500006 0.00109994
2.1375 -0.0500006 0.00109994
2.15 -0.0500006 0.00109994
2.1625 -0.0500006 0.00109994
2.175 -0.0500007 0.00109994
2.1875 -0.0500007 0.00109994
2.2 -0.0500007 0.00109994
2.2125 -0.0500007 0.00109994
2.225 -0.0500007 0.00109995
2.2375 -0.0500007 0.00109995
2.25 -0.0500007 0.00109995
2.2625 -0.0500007 0.00109995
2.275 -0.0500007 0.00109995
2.2875 -0.0500007 0.00109995
2.3 -0.0500007 0.00109995
2.3125 -0.0500007 0.00109995
2.325 -0.0500007 0.00109995
2.3375 -0.0500007 0.00109995
2.35 -0.0500007 0.00109995
2.3625 -0.0500007 0.00109995
2.375 -0.0500007 0.00109995
2.3875 -0.0500007 0.00109996
2.4 -0.0500007 0.00109996
2.4125 -0.0500007 0.00109996
2.425 -0.0500007 0.00109996
2.4375 -0.0500007 0.00109996
2.45 -0.0500007 0.00109996
2.4625 -0.0500007 0.00109996
2.475 -0.0500007 0.00109996
2.4875 -0.0500007 0.00109996
2.5 -0.0500007 0.00109996
2.5125 -0.0500007 0.00109996
2.525 -0.0500007 0.00109996
2.5375 -0.0500007 0.00109996
2.55 -0.0500007 0.00109996
2.5625 -0.0500007 0.00109997
2.575 -0.0500007 0.00109997
2.5875 -0.0500007 0.00109997
2.6 -0.0500007 0.00109997
2.6125 -0.0500007 0.00109997
2.625 -0.0500007 0.00109997
2.6375 -0.0500007 0.00109997
2.65 -0.0500007 0.00109997
2.6625 -0.0500007 0.00109997
2.675 -0.0500007 0.00109997
2.6875 -0.0500007 0.00109997
2.7 -0.0500007 0.00109997
2.7125 -0.0500007 0.00109997
2.725 -0.0500007 0.00109997
2.7375 -0.0500007 0.00109997
2.75 -0.0500007 0.00109997
2.7625 -0.0500007 0.00109998
2.775 -0.0500007 0.00109998
2.7875 -0.0500007 0.00109998
2.8 -0.0500007 0.00109998
2.8125 -0.0500007 0.00109998
2.825 -0.0500007 0.00109998
2.8375 -0.0500007 0.00109998
2.85 -0.0500007 0.00109998
2.8625 -0.0500008 0.00109998
2.875 -0.0500008 0.00109998
2.8875 -0.0500008 0.00109998
2.9 -0.0500008 0.00109998
2.9125 -0.0500008 0.00109998
2.925 -0.0500008 0.00109998
2.9375 -0.0500008 0.00109998
2.95 -0.0500008 0.00109998
2.9625 -0.0500008 0.00109998
2.975 -0.0500008 0.00109998
2.9875 -0.0500008 0.00109998
3 -0.0500008 0.00109998
3.0125 -0.0500008 0.00109999
3.025 -0.0500008 0.00109999
3.0375 -0.0500008 0.00109999
3.05 -0.0500008 0.00109999
3.0625 -0.0500008 0.00109999
3.075 -0.0500008 0.00109999
3.0875 -0.0500008 0.00109999
3.1 -0.0500008 0.00109999
3.1125 -0.0500008 0.00109999
3.125 -0.0500008 0.00109999
3.1375 -0.0500008 0.00109999
3.15 -0.0500008 0.00109999
3.1625 -0.0500008 0.00109999
3.175 -0.0500008 0.00109999
3.1875 -0.0500008 0.00109999
3.2 -0.0500008 0.00109999
3.2125 -0.0500008 0.00109999
3.225 -0.0500008 0.00109999
3.2375 -0.0500008 0.00109999
3.25 -0.0500008 0.00109999
3.2625 -0.0500008 0.00109999
3.275 -0.0500008 0.00109999
3.2875 -0.0500008 0.00109999
3.3 -0.0500008 0.00109999
3.3125 -0.0500008 0.00109999
3.325 -0.0500008 0.00109999
3.3375 -0.0500008 0.00109999
3.35 -0.0500008 0.0011
3.3625 -0.0500008 0.0011
[...]
POINT_DATA 15780
 FIELD attributes 2
p 1 15780 float
-0.0310979 -0.031114 -0.03113 -0.0311461 -0.0311621 -0.0311782 -0.0321096 -0.0330334 -0.0339571 -0.0348808 -0.0359012 -0.0369651 -0.0380314 -0.0390978 -0.0401641 -0.0411838 -0.0421673 -0.0431321 -0.0440969 -0.0450616 -0.0459748 -0.0468726 -0.0477751 -0.0486777 -0.0495802 -0.050477 -0.0513775 -0.052279 -0.0531805 -0.054082 -0.0549829 -0.0558904 -0.0567983 -0.0577062 -0.0586142 -0.0595217 -0.0604212 -0.0613187 -0.0622162 -0.0631137 -0.0640083 -0.0648873 -0.0657645 -0.0666417 -0.0675188 -0.0683938 -0.0692512 -0.0701065 -0.0709618 -0.0718171 -0.0726705 -0.0735051 -0.0743372 -0.0751692 -0.0760013 -0.076831 -0.0776392 -0.0784444 -0.0792495 -0.0800547 -0.080857 -0.0816351 -0.0824094 -0.0831837 -0.0839579 -0.0847286 -0.0854728 -0.0862127 -0.0869526 -0.0876926 -0.0884287 -0.089136 -0.0898385 -0.0905411 -0.0912436 -0.0919416 -0.0926089 -0.0932711 -0.0939332 -0.0945954 -0.0952525 -0.095877 -0.0964958 -0.0971147 -0.0977335 -0.0983468 -0.0989258 -0.099499 -0.100072 -0.100645 -0.101213 -0.101745 -0.102271 -0.102798 -0.103324 -0.103844 -0.104328 -0.104806 -0.105284 -0.105761 -0.106233 -0.106667 -0.107094 -0.10752 -0.107947 -0.108367 -0.108747 -0.10912 -0.109493 -0.109865 -0.110231 -0.110555 -0.110872 -0.111189 -0.111506 -0.111816 -0.112084 -0.112344 -0.112604 -0.112864 -0.113117 -0.113327 -0.11353 -0.113732 -0.113935 -0.11413 -0.114282 -0.114426 -0.11457 -0.114714 -0.11485 -0.114943 -0.115028 -0.115114 -0.115199 -0.115277 -0.115313 -0.115342 -0.115371 -0.115399 -0.115421 -0.115403 -0.115377 -0.115352 -0.115326 -0.115294 -0.115223 -0.115145 -0.115068 -0.11499 -0.114905 -0.114782 -0.114653 -0.114523 -0.114394 -0.114257 -0.114083 -0.113902 -0.113721 -0.113539 -0.113351 -0.113127 -0.112897 -0.112666 -0.112436 -0.112198 -0.111928 -0.111651 -0.111374 -0.111097 -0.110814 -0.1105 -0.110179 -0.109858 -0.109537 -0.10921 -0.108854 -0.108491 -0.108129 -0.107766 -0.107397 -0.107001 -0.106599 -0.106197 -0.105795 -0.105387 -0.104954 -0.104516 -0.104078 -0.103639 -0.103195 -0.102729 -0.102259 -0.101788 -0.101318 -0.100843 -0.100349 -0.0998504 -0.0993523 -0.0988543 -0.0983521 -0.0978332 -0.0973108 -0.0967883 -0.0962659 -0.0957396 -0.0951987 -0.0946543 -0.0941099 -0.0935656 -0.0930175 -0.0924565 -0.0918927 -0.091329 -0.0907652 -0.0901982 -0.0896206 -0.0890404 -0.0884602 -0.08788 -0.0872969 -0.0867054 -0.086112 -0.0855186 -0.0849252 -0.0843296 -0.0837277 -0.0831242 -0.0825207 -0.0819171 -0.0813116 -0.0807019 -0.0800911 -0.0794803 -0.0788695 -0.0782572 -0.0776427 -0.0770273 -0.0764119 -0.0757965 -0.0751799 -0.0745629 -0.0739455 -0.073328 -0.0727106 -0.0720925 -0.0714757 -0.0708587 -0.0702417 -0.0696247 -0.0690072 -0.0683927 -0.0677783 -0.067164 -0.0665496 -0.0659352 -0.0653252 -0.0647155 -0.0641058 -0.0634961 -0.0628865 -0.0622825 -0.0616793 -0.0610761 -0.0604729 -0.0598702 -0.0592743 -0.0586793 -0.0580842 -0.0574892 -0.0568948 -0.0563083 -0.0557231 -0.0551378 -0.0545526 -0.0539683 -0.0533929 -0.0528187 -0.0522446 -0.0516705 -0.0510975 -0.0505341 -0.0499723 -0.0494105 -0.0488488 -0.0482884 -0.0477384 -0.0471901 -0.0466417 -0.0460933 -0.0455465 -0.0450105 -0.0444765 -0.0439424 -0.0434084 -0.0428761 -0.0423553 -0.0418363 -0.0413174 -0.0407984 -0.0402813 -0.039776 -0.0392728 -0.0387695 -0.0382663 -0.0377651 -0.037276 -0.0367891 -0.0363021 -0.0358151 -0.0353302 -0.0348576 -0.0343872 -0.0339168 -0.0334465 -0.0329783 -0.0325226 -0.0320691 -0.0316157 -0.0311622 -0.0307109 -0.0302721 -0.0298357 -0.0293993 -0.0289629 -0.0285288 -0.0281071 -0.0276878 -0.0272684 -0.0268491 -0.0264321 -0.0260275 -0.0256252 -0.025223 -0.0248208 -0.0244209 -0.0240334 -0.0236483 -0.0232632 -0.0228781 -0.0224954 -0.022125 -0.0217571 -0.0213892 -0.0210213 -0.0206559 -0.0203027 -0.0199519 -0.0196012 -0.0192505 -0.018902 -0.0185654 -0.0182314 -0.0178973 -0.0175633 -0.0172318 -0.0169114 -0.0165935 -0.0162756 -0.0159577 -0.0156423 -0.0153377 -0.0150354 -0.0147331 -0.0144308 -0.014131 -0.0138416 -0.0135546 -0.0132675 -0.0129805 -0.0126959 -0.0124217 -0.0121496 -0.0118775 -0.0116054 -0.0113356 -0.0110759 -0.0108184 -0.010561 -0.0103035 -0.0100483 -0.00980305 -0.0095599 -0.00931674 -0.00907359 -0.00883264 -0.00860116 -0.00837173 -0.0081423 -0.00791287 -0.00768552 -0.00746717 -0.00725092 -0.00703468 -0.00681844 -0.00660427 -0.00639874 -0.00619525 -0.00599175 -0.00578826 -0.00558676 -0.00539354 -0.00520243 -0.00501132 -0.00482021 -0.00463119 -0.00445015 -0.00427122 -0.00409229 -0.00391336 -0.00373647 -0.00356724 -0.00340006 -0.00323288 -0.0030657 -0.00290057 -0.00274252 -0.00258634 -0.00243017 -0.002274 -0.00211985 -0.00197235 -0.00182637 -0.00168039 -0.00153441 -0.00139021 -0.00125225 -0.00111589 -0.000979534 -0.000843177 -0.000708595 -0.000579922 -0.000452858 -0.000325795 -0.000198731 -7.33134e-05 4.63529e-05 0.000164404 0.000282454 0.000400505 0.000516938 0.000627922 0.000737322 0.000846721 0.00095612 0.0010639 0.00116663 0.00126782 0.00136901 0.00147019 0.00156979 0.00166468 0.00175812 0.00185155 0.00194498 0.0020369 0.00212443 0.00221054 0.00229664 0.00238274 0.00246737 0.00254787 0.00262705 0.00270622 0.00278539 0.00286316 0.0029371 0.00300972 0.00308235 0.00315497 0.0032262 0.0032939 0.00336035 0.00342679 0.00349324 0.0035584 0.00362025 0.00368088 0.00374152 0.00380215 0.00386151 0.00391783 0.00397301 0.00402818 0.00408336 0.00413733 0.00418853 0.00423858 0.00428864 0.00433869 0.00438754 0.00443385 0.00447908 0.00452431 0.00456955 0.00461364 0.00465541 0.00469612 0.00473682 0.00477752 0.00481711 0.00485456 0.00489103 0.0049275 0.00496396 0.00499938 0.00503287 0.00506538 0.00509789 0.00513039 0.00516186 0.00519159 0.0052204 0.00524921 0.00527803 0.00530587 0.00533214 0.00535751 0.00538287 0.00540824 0.00543264 0.00545564 0.0054778 0.00549996 0.00552211 0.00554337 0.0055634 0.00558258 0.00560177 0.00562095 0.00563924 0.00565646 0.00567289 0.00568933 0.00570576 0.00572135 0.00573603 0.00574992 0.00576381 0.00577769 0.00579076 0.00580302 0.00581456 0.0058261 0.00583764 0.00584841 0.00585851 0.00586788 0.00587726 0.00588664 0.00589524 0.00590331 0.0059107 0.00591809 0.00592549 0.00593216 0.00593841 0.00594398 0.00594955 0.00595513 0.00595999 0.00596453 0.00596844 0.00597236 0.00597628 0.00597952 0.00598256 0.00598497 0.00598738 0.00598979 0.00599153 0.00599316 0.0059942 0.00599524 0.00599628 0.0059967 0.00599709 0.00599689 0.00599669 0.00599649 0.00599567 0.0059949 0.00599359 0.00599229 0.00599098 0.00598908 0.00598735 0.00598505 0.00598276 0.00598047 0.00597759 0.00597494 0.00597177 0.0059686 0.00596543 0.00596171 0.00595828 0.00595433 0.00595039 0.00594644 0.00594195 0.00593782 0.00593321 0.0059286 0.00592399 0.00591886 0.00591417 0.005909 0.00590382 0.00589864 0.00589295 0.00588777 0.00588212 0.00587647 0.00587082 0.00586469 0.00585912 0.00585309 0.00584705 0.00584102 0.00583451 0.00582861 0.00582228 0.00581595 0.00580962 0.00580283 0.00579672 0.00579017 0.00578362 0.00577707 0.00577007 0.0057638 0.00575711 0.00575042 0.00574373 0.00573661 0.00573027 0.00572351 0.00571675 0.00571 0.00570281 0.00569646 0.00568971 0.00568296 0.0056762 0.00566904 0.00566276 0.00565608 0.00564939 0.00564271 0.00563562 0.00562947 0.00562293 0.00561638 0.00560984 0.0056029 0.00559694 0.00559059 0.00558425 0.0055779 0.00557117 0.00556547 0.00555938 0.00555329 0.00554721 0.00554073 0.00553534 0.00552956 0.00552379 0.00551801 0.00551187 0.00550684 0.00550142 0.00549601 0.0054906 0.00548481 0.00548017 0.00547516 0.00547015 0.00546514 0.00545976 0.00545556 0.00545098 0.00544639 0.0054418 0.00543684 0.00543306 0.00542889 0.00542472 0.00542055 0.00541602 0.00541263 0.00540882 0.00540501 0.0054012 0.00539699 0.00539379 0.00539015 0.00538651 0.00538286 0.0053788 0.00537539 0.00537148 0.00536757 0.00536365 0.00535925 0.00535435 0.00534862 0.0053429 0.00533717 0.00533066 0.00532189 0.00531268 0.00530348 0.00529427 0.00528457 0.00525845 0.0052268 0.00519515 0.0051635 0.00512697 0.00511549 0.00511814 0.0051208 0.00512345 0.00514907 0.00523267 0.00530871 0.00538808 0.00545105 0.00549667 0.00548964 0.00548581 0.00548197 0.00547816 0.00547663 0.00550351 0.00553118 0.00555886 0.00557853 0.00559949 0.00561342 0.00563226 0.00565114 0.00567001 0.00568434 0.00574722 0.00581223 0.00587724 0.00594225 0.00599875 0.00609018 0.00616628 0.00624239 0.00631849 0.00632363 0.00630899 0.00628961 0.00627022 0.00625084 0.00624095 0.00604009 0.00581852 0.00559695 0.00537538 0.005048 0.004568 0.00407411 0.00358022 0.00308632 0.00262222 0.00235244 0.00207513 0.00179781 0.00152049 0.00127313 0.00117452 0.00106947 0.000964429 0.000859385 0.00077372 0.000667786 0.000556297 0.000444806 0.000333315 0.000255309
-0.0319473 -0.0319664 -0.0319855 -0.0320046 -0.0320237 -0.0320428 -0.0327437 -0.0336213 -0.034404 -0.0351664 -0.0362247 -0.0372614 -0.0382518 -0.0392542 -0.0403136 -0.0412976 -0.0422588 -0.0432248 -0.0441654 -0.0451006 -0.0460065 -0.0469046 -0.0478106 -0.0487165 -0.0496217 -0.0505267 -0.0514184 -0.0523222 -0.0532308 -0.0541406 -0.0550609 -0.055966 -0.0568783 -0.05779 -0.0586995 -0.0596146 -0.0605159 -0.0614142 -0.0623138 -0.0632137 -0.0641098 -0.0649909 -0.0658709 -0.0667505 -0.0676281 -0.0685039 -0.0693621 -0.0702178 -0.071076 -0.0719347 -0.0727913 -0.0736253 -0.0744607 -0.0752955 -0.0761279 -0.0769615 -0.0777688 -0.0785742 -0.0793819 -0.0801901 -0.0809969 -0.0817725 -0.0825497 -0.0833264 -0.0841008 -0.0848767 -0.0856175 -0.0863575 -0.0870998 -0.0878425 -0.0885849 -0.0892873 -0.0899925 -0.0906972 -0.0913998 -0.0921052 -0.0927665 -0.0934287 -0.0940929 -0.0947575 -0.0954233 -0.0960402 -0.0966612 -0.0972819 -0.0979007 -0.0985234 -0.0990925 -0.0996655 -0.10024 -0.100815 -0.101395 -0.101914 -0.102441 -0.102969 -0.103495 -0.104029 -0.104502 -0.104979 -0.105457 -0.105936 -0.106421 -0.106843 -0.10727 -0.107697 -0.108124 -0.108555 -0.108925 -0.109298 -0.10967 -0.110043 -0.110418 -0.110733 -0.111049 -0.111365 -0.111682 -0.112001 -0.11226 -0.11252 -0.11278 -0.113039 -0.113299 -0.113501 -0.113703 -0.113905 -0.114108 -0.11431 -0.114454 -0.114598 -0.114742 -0.114886 -0.115029 -0.115111 -0.115197 -0.115282 -0.115367 -0.115455 -0.115479 -0.115508 -0.115536 -0.115565 -0.115599 -0.115566 -0.11554 -0.115514 -0.115489 -0.115469 -0.115385 -0.115307 -0.115227 -0.115147 -0.115074 -0.114938 -0.114805 -0.114673 -0.114543 -0.114415 -0.114229 -0.114047 -0.113863 -0.113678 -0.113498 -0.113262 -0.113029 -0.112795 -0.112564 -0.112335 -0.112053 -0.111776 -0.111496 -0.111215 -0.110939 -0.110614 -0.11029 -0.109966 -0.109645 -0.109324 -0.108959 -0.108596 -0.108231 -0.107865 -0.107502 -0.107099 -0.106695 -0.106291 -0.105889 -0.105486 -0.105045 -0.104607 -0.104167 -0.103727 -0.103288 -0.102812 -0.102339 -0.101866 -0.101395 -0.100927 -0.100421 -0.0999226 -0.0994215 -0.0989198 -0.0984248 -0.0978957 -0.0973695 -0.0968438 -0.0963208 -0.0958006 -0.095251 -0.0947062 -0.0941589 -0.093611 -0.0930679 -0.0924994 -0.0919323 -0.0913657 -0.0908016 -0.0902385 -0.0896539 -0.0890734 -0.0884905 -0.0879072 -0.0873277 -0.0867299 -0.0861335 -0.0855376 -0.0849439 -0.0843512 -0.0837435 -0.0831396 -0.0825337 -0.0819273 -0.0813245 -0.0807097 -0.0800961 -0.079483 -0.0788719 -0.0782618 -0.0776426 -0.0770269 -0.0764093 -0.0757914 -0.0751767 -0.0745556 -0.0739358 -0.0733164 -0.0726987 -0.072082 -0.0714616 -0.0708444 -0.0702255 -0.0696064 -0.0689902 -0.0683726 -0.0677563 -0.0671403 -0.0665258 -0.0659122 -0.0652996 -0.0646897 -0.0640785 -0.063467 -0.0628581 -0.0622521 -0.0616472 -0.0610426 -0.0604392 -0.0598368 -0.0592391 -0.058644 -0.0580477 -0.0574512 -0.056857 -0.0562693 -0.0556827 -0.0550963 -0.0545109 -0.0539265 -0.0533501 -0.0527759 -0.0522008 -0.0516255 -0.0510523 -0.0504884 -0.0499256 -0.049363 -0.0488011 -0.0482402 -0.0476899 -0.0471415 -0.0465924 -0.0460432 -0.0454957 -0.0449599 -0.0444251 -0.0438905 -0.0433564 -0.0428233 -0.0423027 -0.0417838 -0.0412643 -0.0407448 -0.0402268 -0.0397221 -0.0392184 -0.0387149 -0.0382117 -0.0377093 -0.037221 -0.0367341 -0.0362468 -0.0357595 -0.0352735 -0.0348019 -0.0343313 -0.0338608 -0.0333905 -0.032921 -0.0324665 -0.032013 -0.0315595 -0.0311059 -0.0306533 -0.0302159 -0.0297795 -0.0293431 -0.0289067 -0.0284712 -0.028051 -0.0276317 -0.0272125 -0.0267933 -0.0263749 -0.0259719 -0.0255699 -0.0251678 -0.0247656 -0.0243643 -0.0239783 -0.0235932 -0.0232083 -0.0228233 -0.0224394 -0.0220703 -0.0217027 -0.021335 -0.0209672 -0.0206006 -0.0202486 -0.019898 -0.0195474 -0.0191969 -0.0188476 -0.0185122 -0.0181783 -0.0178444 -0.0175104 -0.0171777 -0.0168591 -0.0165414 -0.0162237 -0.0159059 -0.0155892 -0.0152868 -0.0149848 -0.0146828 -0.0143806 -0.0140788 -0.0137924 -0.0135054 -0.0132187 -0.012932 -0.0126451 -0.0123738 -0.0121022 -0.0118305 -0.0115584 -0.0112862 -0.0110292 -0.0107717 -0.0105147 -0.0102577 -0.0100002 -0.00975744 -0.00951475 -0.00927198 -0.00902887 -0.00878596 -0.00855698 -0.00832763 -0.00809869 -0.00786983 -0.00764049 -0.00742481 -0.00720929 -0.00699367 -0.00677754 -0.00656168 -0.00635859 -0.0061552 -0.00595234 -0.00574959 -0.00554655 -0.00535557 -0.00516521 -0.00497472 -0.00478369 -0.00459321 -0.00441406 -0.00423519 -0.00405671 -0.00387833 -0.00370031 -0.0035323 -0.00336536 -0.00319838 -0.00303124 -0.00286491 -0.00270829 -0.00255218 -0.00239618 -0.0022402 -0.00208487 -0.00193917 -0.00179359 -0.00164796 -0.0015021 -0.00135653 -0.00122112 -0.00108489 -0.000949049 -0.000813292 -0.000676773 -0.000550809 -0.00042441 -0.00029791 -0.000170959 -4.372e-05 7.35502e-05 0.000191516 0.000309042 0.000426469 0.000544634 0.00065345 0.000762301 0.00087124 0.00098057 0.00108992 0.00119063 0.00129175 0.00139252 0.00149322 0.00159428 0.00168728 0.00178024 0.00187328 0.00196664 0.00205995 0.0021456 0.00223164 0.00231736 0.002403 0.00248897 0.00256771 0.00264642 0.0027252 0.0028043 0.00288334 0.00295551 0.00302807 0.0031003 0.00317246 0.00324494 0.003311 0.00337701 0.00344309 0.00350948 0.00357579 0.00363603 0.00369661 0.00375691 0.00381715 0.00387766 0.00393245 0.00398728 0.00404217 0.00409729 0.00415243 0.00420204 0.00425204 0.0043018 0.0043515 0.00440153 0.00444631 0.00449119 0.00453612 0.00458129 0.00462654 0.00466675 0.0047074 0.00474781 0.00478817 0.00482889 0.00486488 0.00490101 0.0049372 0.00497361 0.00501015 0.00504215 0.00507461 0.00510684 0.00513903 0.00517161 0.00519993 0.00522844 0.00525699 0.00528575 0.00531468 0.00533953 0.00536485 0.00538997 0.00541504 0.00544053 0.00546219 0.00548407 0.005506 0.00552811 0.00555043 0.00556909 0.00558824 0.0056072 0.00562612 0.00564545 0.00566138 0.00567756 0.00569378 0.00571017 0.0057268 0.00574015 0.005754 0.00576768 0.00578133 0.00579541 0.00580643 0.00581774 0.00582908 0.00584059 0.00585236 0.00586119 0.00587053 0.00587972 0.00588887 0.00589848 0.00590535 0.00591253 0.00591974 0.0059271 0.00593476 0.00593977 0.00594532 0.00595072 0.00595609 0.00596194 0.00596532 0.00596904 0.0059728 0.00597669 0.00598091 0.00598275 0.00598513 0.00598739 0.00598962 0.00599235 0.00599284 0.00599371 0.0059946 0.00599562 0.005997 0.00599622 0.00599599 0.00599565 0.00599529 0.00599544 0.00599355 0.00599209 0.00599065 0.00598932 0.00598841 0.00598554 0.00598322 0.00598081 0.00597837 0.00597644 0.00597271 0.0059694 0.0059661 0.00596291 0.00596013 0.0059556 0.00595164 0.00594758 0.0059435 0.00593994 0.00593477 0.00593003 0.00592532 0.00592069 0.00591649 0.00591074 0.00590554 0.00590027 0.00589498 0.00589021 0.005884 0.00587825 0.00587251 0.00586684 0.00586163 0.00585502 0.00584897 0.00584286 0.00583672 0.00583113 0.00582423 0.0058178 0.00581139 0.00580505 0.00579918 0.00579204 0.00578548 0.00577886 0.00577222 0.00576613 0.00575887 0.0057521 0.00574534 0.00573863 0.00573243 0.00572508 0.00571831 0.00571149 0.00570466 0.00569839 0.00569106 0.00568424 0.00567743 0.00567067 0.00566443 0.00565715 0.00565046 0.00564372 0.00563698 0.00563081 0.00562368 0.00561708 0.00561049 0.00560394 0.00559793 0.00559098 0.00558463 0.00557824 0.00557185 0.00556604 0.00555937 0.00555324 0.00554713 0.00554103 0.0055355 0.00552912 0.00552334 0.00551755 0.00551174 0.00550653 0.00550053 0.00549511 0.00548968 0.00548427 0.00547945 0.00547383 0.00546882 0.00546381 0.00545881 0.0054544 0.00544923 0.00544469 0.00544013 0.00543555 0.00543162 0.00542685 0.00542269 0.00541861 0.00541454 0.00541108 0.00540671 0.00540312 0.00539949 0.0053957 0.00539272 0.00538856 0.00538497 0.00538174 0.00537859 0.00537603 0.0053717 0.00536889 0.00536589 0.00536211 0.00535983 0.00535451 0.00534926 0.00534626 0.0053438 0.00534137 0.00533233 0.00533059 0.00532768 0.00531974 0.0053187 0.00530438 0.00527981 0.0052753 0.00527552 0.00526479 0.00522189 0.00523346 0.00524383 0.0052491 0.00531721 0.00541068 0.00547424 0.00553781 0.00557579 0.00552948 0.00551026 0.00550322 0.00549618 0.00548868 0.00549267 0.00551021 0.00552838 0.00554654 0.00555824 0.00556949 0.00557055 0.0055716 0.00557265 0.00557358 0.00557427 0.0055991 0.00562805 0.00565708 0.00568612 0.00565949 0.00569764 0.00576028 0.00582329 0.00588631 0.00596629 0.00618056 0.00626957 0.00635203 0.00642813 0.0063212 0.00635706 0.00633768 0.00632122 0.00631176 0.00625638 0.00620983 0.00598826 0.00576669 0.00553254 0.00503893 0.00469931 0.00420541 0.00371152 0.00321495 0.00259614 0.0024145 0.00213718 0.00185986 0.00158255 0.00124273 0.00122361 0.00111857 0.00101353 0.000908483 0.000751289 0.000715275 0.000603786 0.000492298 0.000380809 0.000206782