# vtk DataFile Version 2.0
sampleSurface
ASCII
DATASET POLYDATA
POINTS 9879 float
6 2.24045e-22 1 6 -4.23516e-22 0 5 0 0 5 4.23516e-22
0.5 5 5.02844e-23 1 7 1.69508e-17 0 6 2.40786e-23 1
7 -4.23516e-22 1 8 -1.0754e-16 0 8 4.23516e-22 1 9
-7.28995e-17 0 9 4.23516e-22 1 10 5.03714e-17 0 10 -4.23516e-22
1 11 -1.10109e-16 0 11 0 1 12 1.14673e-16 0
12 0 1 13 1.07357e-16 0 13 -2.11758e-22 1 14
-3.31971e-17 0 14 0 1 15 0 1 15 5.68977e-17
0 -5 -1.61559e-27 0 -5 1.61559e-27 0 -5 0 0.5
-5 8.07794e-28 0.5 -2.89285 0 0 -3.00033 0 0 -3.00033
-8.47033e-22 0.0932873 -1.00051 -1.01779e-17 0.124742 -0.875522 0 0.124691 -0.875461 -8.40257e-19
0 -1.00046 0 0 0.015625 1.94517e-24 2.2091e-05 5.35603e-05 -1.21492e-24 0.0155233
0.0156432 3.30872e-24 0.0155555 1.00057 -5.42101e-19 0.0152422 1.00056 0 0.0308735 1.03181
0 0.0308728 1.03183 -1.89735e-19 0 1.00058 0 0 2 1.21939e-17
0.125 2 2.01948e-28 0.25 2.25 0 0.25 2.25 -1.26744e-17 0
2 2.01948e-28 0 3 2.86199e-17 0.25 3 3.16479e-17 0.5 3.5
2.01948e-28 0.5 3.5 -1.71188e-17 0 3 2.01948e-28 0 4 0
0 4 0 0 4 5.4967e-18 0.5 4 1.00974e-28 0.5
6 2.52435e-29 1 5 0 1 6 2.96289e-24 1 5
3.35588e-25 2 6 4.23516e-22 2 7 4.23516e-22 2 8 0
2 9 -4.23516e-22 2 10 0 2 11 2.11758e-22 2
12 0 2 13 -2.11758e-22 2 14 0 2 15
2.11758e-22 2 -5 0 1 -5 0 1.5 -5 0
1.5 -5 0 1 -1.00051 0 1.00028 -1.0005 1.69407e-21 1.07098
-0.875582 -3.38813e-21 1.04431 -0.875573 0 1.00033 -0.000176494 0 1.00043 -0.000187004
1.35525e-18 1.03171 0.0310738 0 1.03178 0.0310423 5.42101e-20 1.0005 0.0154335 0
1.00047 2.25 0 1 2 5.03191e-18 1 2 -8.15581e-18 1.125
2 6.36148e-18 1.25 2.25 0 1.25 3.5 0 1 3
-7.24998e-18 1 3 -1.28933e-17 1.25 3 -3.74554e-18 1.5 3.5 0
1.5 4 0 1 4 2.0972e-17 1.5 4.50019 3.38813e-21 1.50011
4.50001 3.17637e-22 1.0073 4 -1.00974e-28 1 5 -4.34409e-17 1.5 5
-2.52435e-29 2 5 1.60269e-22 2 5 4.23516e-22 2.5 5 0
3 6 -4.23516e-22 3 7 4.23516e-22 3 8 4.23516e-22 3
9 0 3 10 0 3 11 -2.11758e-22 3 12
2.11758e-22 3 13 -2.11758e-22 3 14 2.11758e-22 3 15 0
3 -5 0 2 -5 0 2 -5 0 2
-0.750281 -2.71051e-20 2.0005 -0.996618 -5.0822e-21 2.00034 -0.884887 3.38813e-21 2.25032 -0.750178
-2.73083e-17 2.25039 0.124965 6.77626e-21 2.00046 0.0589837 -3.38813e-21 2.00046 0.102874 -1.69407e-21
2.25032 0.249982 -1.24887e-17 2.25032 0.249997 1.35525e-20 2.00047 1.0005 1.35525e-20 2.00056
1.00037 1.35525e-20 2.25063 1.25045 -1.35525e-20 2.25054 1.25043 -1.69813e-17 2.00047 1.12546
-1.35525e-20 2.00051 2.00018 3.38813e-21 2.00013 2.00027 1.07133e-17 2.25026 2.25027 6.77626e-21
2.25023 2.25017 6.77626e-21 2.00011 3.5 0 2 3.00014 -1.11944e-17 2.00005
3.00014 2.41235e-17 2.25008 3.00001 2.0117e-21 2.49701 3.5 0 2 4
-1.32349e-23 2 4.00001 0 2.00871 4.5 -3.02248e-22 2.5 4.5 2.52435e-29
2.5 4.50017 2.11758e-22 2.00014 -5 0 4 -4.00035 0 4
-4.0004 -5.66496e-18 3.5 -4.00039 0 3 -4.5002 0 3 -5
-9.5459e-22 3 5 -8.47033e-22 3.5 5 2.1923e-22 4 5 1.90287e-22
4 6 4.23516e-22 4 7 0 4 8 0 4
9 4.23516e-22 4 10 0 4 11 2.11758e-22 4 12
2.11758e-22 4 13 0 4 14 2.11758e-22 4 15 0
4 -5 0 3 -5 0 4 -0.750077 -1.69407e-21 3.00019
-0.975165 6.35275e-22 3.00002 -0.50002 0 3.43551 -0.50014 0 3.00035 0.249985
0 3.00023 0.097637 1.69407e-21 3.00023 0.500042 3.38813e-21 3.26572 0.500014 0
3.00034 1.00005 -1.35525e-20 3.00048 1.00018 8.47033e-22 3.50026 1.50019 0 3.50023
1.50022 -1.55041e-17 3.00052 1.2501 0 3.00055 2.00039 0 3.00045 2.00025
6.77626e-21 3.50028 2.50024 -6.77626e-21 3.50026 2.50027 -2.15688e-17 3.00027 2.25034 0
3.00035 3.0002 -1.69407e-21 3.00018 3.00017 9.52404e-18 3.50018 3.50015 3.38813e-21 3.50016
3.50018 0 3.00016 4.00014 -6.90484e-17 3.50015 4.41401 8.47033e-22 3.50003 4.5
2.24255e-22 3 4.5 0 3 4.00015 0 3.00016 5 0
4 -5 -4.56216e-21 5 -4.00031 0 5 -3.00034 1.35525e-20 5.00001
-3.0004 2.50722e-18 4.5 -3.00052 0 4 -3.50051 -3.61446e-17 4 5
-5.3804e-23 4 4.5 0 4 4.01315 -1.98523e-22 4 6 -1.77009e-22
5 7 8.49641e-23 5 8 -2.44576e-22 5 9 -1.79481e-22 5
10 -8.26783e-24 5 11 3.71066e-23 5 12 7.40495e-23 5 13
-7.46022e-23 5 13 -3.57483e-23 5 14 -2.11758e-22 5 15 0
5 -5 1.00974e-28 5 0.5 0 4 0.499998 0 4
0.5 0 4 1 -1.61559e-27 4 1 -1.61559e-27 4 1.5
-5.24977e-23 4 1.5 0 4 2.00017 -3.38813e-21 4.00019 2 -4.13239e-17
4.5 2.5 0 4.5 2.50016 0 4.00018 3 0 4
3 2.76547e-17 4.5 3.5 -2.52435e-29 4.5 3.5 0 4 5
0 5 4 0 4 4 -3.3529e-17 4.5 4 1.26218e-29
5 6 3.15544e-30 5 7 0 5 8 0 5
9 3.9443e-31 5 10 0 5 11 -9.86076e-32 5 12
-4.93038e-32 5 13 1.2326e-32 5 -5 -1.50785e-21 6 -4.00028 0
6 -3 -2.11758e-22 6 -2 -2.11758e-22 5 -2.50019 3.01205e-17 5.00003
-2 0 6 -1 -2.35712e-17 5 -1.5 1.39417e-17 5 -1
8.47033e-22 6 -1.46255e-06 1.4195e-17 5 -0.500002 2.00704e-17 5 -4.41788e-07 4.23516e-22
6 1 1.75768e-17 5 0.499999 -4.03442e-18 5 1 0 6
2 -1.6111e-22 6 1.5 -2.46127e-23 5 14 -2.49584e-23 6 15
6.49997e-23 6 -5 0 6 2 -1.00974e-28 6 2 -6.34437e-17
5 1.5 4.03897e-28 5 3 5.04871e-29 6 3 -2.10964e-17 5
2.5 0 5 4 -1.26218e-29 6 3.5 2.52435e-29 5 5
-6.31089e-30 6 6 -3.15544e-30 6 7 1.57772e-30 6 8 7.88861e-31
6 9 -3.9443e-31 6 10 0 6 11 0 6
12 -2.46519e-32 6 13 1.2326e-32 6 14 0 6 15
-1.52652e-17 6 -5 -6.17313e-21 7 -4.00025 1.35525e-20 7 -3 6.2323e-23
7 -3 5.04871e-29 7 -3 1.09771e-22 7 -2 4.23516e-22 7
-1 -4.23516e-22 7 -6.20385e-08 0 7 1 0 7 2
0 7 -5 -2.52435e-29 7 -3 0 7 2 5.04871e-29
7 3 2.52435e-29 7 4 0 7 5 6.31089e-30 7
6 -3.15544e-30 7 7 0 7 8 3.9443e-31 7 9
0 7 10 -9.86076e-32 7 11 0 7 12 1.2326e-32
7 13 0 7 14 0 7 15 -1.08141e-17 7
-5 1.7064e-23 8 -4 0 8 -3 1.32733e-22 7 -3
0 8 -2 0 8 -1 -4.23516e-22 8 -4.65216e-09 0
8 1 0 8 2 0 8 -5 7.6473e-18 8
2 -2.52435e-29 8 3 0 8 4 0 8 5
-6.31089e-30 8 6 1.57772e-30 8 7 0 8 8 3.9443e-31
8 9 0 8 10 9.86076e-32 8 11 0 8
12 1.2326e-32 8 13 0 8 14 0 8 15
0 8 1.98072e-05 -1.47443e-18 0.0155232 -6.78597e-10 6.46235e-27 0 -0.015625 1.89557e-19
0 -0.015607 0 0.0155222 0.015625 6.46235e-27 0 0.984621 -2.64274e-19 1.00027
1.00023 6.77626e-21 1.00025 1.00022 0 0.984609 0.984609 0 0.984627 -0.875589
0 0.875281 -1.00051 0 0.875232 -0.000168606 -7.04731e-19 0.984785 -0.0157783 0
0.984748 -0.0157891 0 1.0004 0.984964 -4.87891e-19 0 0.984951 0 0.0152386
0.0154375 2.71051e-20 0.984823 0.500347 0 0 0.484697 -1.40946e-18 0 0.484699
-2.71051e-20 0.0154073 0.50035 2.71051e-20 0.0153902 6.85113e-05 -6.74075e-34 0.497067 0.00351742 0
0.497921 0.00351735 -6.16298e-33 0.497919 0.500935 -5.29396e-23 0.500103 0.500923 1.81265e-19 0.484474
0.485343 0 0.48448 0.485354 -5.29396e-23 0.500107 -1.0005 0 1.12529 -0.875598
0 1.12535 -0.847656 0 1.75035 -0.875511 -8.67701e-18 1.75034 -1.00046 8.00954e-18
1.75027 -1.00043 4.23516e-22 2.00034 -0.000137327 0 2.00046 -0.000174407 -6.77626e-21 1.87558
-0.125203 0 1.87555 -0.125185 -4.78404e-18 2.0005 1.00026 0 1.03153 0.969013
6.77626e-21 1.00028 0.969038 8.80914e-19 1.03156 0.0614109 0 1.87557 -0.0314004 0
1.00037 -0.0314207 0 1.03167 -0.750309 -7.75205e-18 1.87547 -0.750381 0 1.75039
0.124961 0 1.87556 1.00049 5.54298e-18 1.87554 0.875516 1.35525e-20 1.87556 0.875507
0 2.00058 -0.442444 -4.23516e-22 0.0622773 -0.437776 0 0.0622817 -0.437709 -2.11758e-22
0.0234443 -0.0040072 3.0527e-19 0.500638 -0.000168277 0 0.500646 -2.94017e-06 0 0.497049
-0.00322378 0 0.496279 -0.492468 -5.29396e-23 0.500175 -0.469803 -2.11758e-22 0.500181 -0.469837
0 0.468841 -0.501073 0 0.468827 -0.501061 2.64698e-23 0.480492 -0.000101869 -1.47052e-19
0.504366 -0.00397949 -2.01948e-28 0.504355 -0.501028 0 0.522018 -0.501022 0 0.531434
-0.469779 0 0.531436 0.00364412 0 0.500984 0.00375691 0 0.504522 0.485366
0 0.514811 0.485366 0 0.515734 0.500948 0 0.515729 0.500947 -1.65436e-24
0.515118 -0.500391 3.52366e-19 0.0622223 -0.437669 4.23516e-22 0 -0.500304 0 0
-0.501042 0 0.500173 -0.50037 -5.42101e-20 1.00067 -0.43782 0 1.00061 -0.437881
5.42101e-20 0.938131 -0.500433 0 0.93818 0.500963 -5.14996e-19 0.984633 0.485343 0
0.984612 0.485309 -1.35525e-20 1.00027 0.500901 2.71051e-20 1.00034 -2.0003 0 0
-2.00031 0 0.249984 -1.75035 -6.77626e-21 0.249978 -1.75034 -2.12097e-18 0 -1.12549
1.69407e-21 0.0567975 -1.12551 -3.38813e-21 0.124883 -1.1051 0 0.12486 -2.00053 -4.06576e-19
0.750021 -2.00052 0 1.00001 -1.75043 0 1 -1.75044 1.35525e-20 0.750004
1.03145 0 1.00022 1.03142 0 0.968935 1.0002 -6.77626e-21 0.968969 -1.12548
0 0 -1.12547 0 0.875178 -1.12544 0 1.00021 -0.562867 -4.63496e-18
0 -0.562923 0 0.0621015 -0.875622 1.40946e-18 0.499992 -0.875629 -1.40946e-18 0.43746
-0.875614 0 0.37493 -1.00058 -1.35525e-20 0.374847 -1.0006 -6.77626e-21 0.499982 -0.501071
0 0.459931 -0.501067 7.5513e-19 0.437262 -0.563478 0 0.437296 -0.563493 0
0.500081 1.875 7.07317e-18 0 1.875 0 0.125 2 -9.02096e-18 0.875
1.875 -1.00974e-28 0.875 1.875 0 1 -0.501021 2.64698e-23 0.532727 0.516516
0 0.515723 0.516516 -1.65436e-24 0.515322 -1.00059 3.04932e-18 0.625092 -0.875599 0
0.625021 -0.875605 0 0.562503 -0.563001 -5.42101e-20 0.938195 -0.562935 0 1.00068
-0.501004 6.60686e-20 0.562681 -0.563465 6.77626e-21 0.562645 0.515999 -2.71051e-20 0.0153741 0.515996
1.89735e-19 0 1.00002 0 0.499997 1.00004 6.91179e-19 0.484354 0.984415 3.38813e-21
0.484354 0.984397 0 0.499997 0.516504 -1.57919e-19 0.500096 0.516494 -4.23516e-22 0.484467
0.984397 0 0.515625 1.00002 0 0.515625 0.516455 3.25261e-19 1.00046 0.516567
-2.71051e-20 0.984687 -0.000486907 -2.11758e-22 0.751673 0.0150628 0 0.751704 0.0151069 -2.11758e-22
0.736039 -0.000466544 1.79846e-18 0.73608 0.250631 -1.05879e-22 0.499142 0.234996 0 0.4991
0.235042 0 0.51471 0.250685 1.77115e-18 0.514757 0.234396 1.59578e-18 0.751475 0.250021
2.64698e-23 0.751472 0.250098 0 0.735925 0.234416 0 0.735938 0.500674 0
1.03185 0.469677 2.71051e-20 1.00028 0.46947 -2.71051e-20 1.0318 -0.000487113 0 0.767278
0.0150573 0 0.767313 0.249988 1.48893e-23 0.985961 0.249988 0 0.985377 0.234363
0 0.98538 0.234363 8.27181e-25 1.00097 0.234889 9.09899e-24 1.00097 0.250006 2.3521e-18
0.76703 0.234384 0 0.767027 0.249988 -2.64698e-23 1.00096 0.250614 0 0.249941
0.237135 1.32349e-23 0.249938 0.250669 1.98523e-23 0.26291 0.484921 5.42101e-19 0.249634 0.484944
-5.42101e-20 0.265243 0.500584 0 0.265233 0.500562 5.42101e-20 0.249623 0.25266 0
[...]
POINT_DATA 9879
FIELD attributes 1
U 3 9879 float
24.6077 -0.00243642 0.525163 25 0 0 25 0 0 24.3518 -0.0341723
1.20728 24.0058 0.000273405 1.63111 25 0 0 24.6077 -0.00243642 0.525163
24.6137 -0.00378917 0.540967 25 0 0 24.6204 -0.0042186 0.537181 25
0 0 24.6249 -0.00446703 0.529323 25 0 0 24.6293 -0.00466719
0.520387 25 0 0 24.6343 -0.00479147 0.510785 25 0 0
24.6394 -0.00484333 0.500829 25 0 0 24.6442 -0.0048635 0.490939 25
0 0 24.6493 -0.00486782 0.479941 24.6523 -0.00486678 0.47381 24.8596 -0.0079886
0.196166 25 0 0 25 0 0 25 0 0
25 9.8563e-13 -8.7437e-11 25 0 0 25 0 0 25.0003
6.28828e-06 -0.000776315 25.2112 -0.000183323 -0.0845993 25.3143 -0.000688945 -0.127761 25 0
0 25 0 0 25.0037 -8.97062e-05 0.000226547 27.6349 -0.0611019 0.149432
27.5892 -0.0631672 0.159524 24.6658 -0.0664561 0.103006 24.713 -0.0760248 0.232475 24.7091
-0.0716127 0.22967 25 0 0 25 0 0 24.8706 -0.0671812
0.75454 24.8673 -0.0848361 1.68054 24.8193 -0.0895163 1.60232 25 0 0
25 0 0 24.8731 -0.0846976 1.23236 24.3173 -0.0816094 2.84899 24.1364
-0.0316172 1.58898 25 0 0 25 0 0 25 0
0 25 0 0 24.2004 -0.037567 1.4822 24.2004 -0.037567 1.4822
24.6077 -0.00243642 0.525163 24.0058 0.000273408 1.63111 24.6077 -0.00243642 0.525163 24.8889
0.0124565 0.564747 24.8099 0.00491746 0.381279 24.7945 0.00520901 0.375675 24.7884 0.00544636
0.366517 24.785 0.00556309 0.359974 24.7825 0.00559575 0.355626 24.7806 0.00563168 0.352438
24.779 0.00561991 0.350068 24.7776 0.00557697 0.348124 24.776 0.00554326 0.347519 24.775
0.00553149 0.347863 25 0 0 25 0 0 25 5.23167e-13
-6.97771e-11 25 8.33662e-13 -1.11486e-10 24.8218 0.00221921 -0.0933566 24.8209 0.00213818 -0.074168
24.7463 0.00322744 -0.0821879 24.7426 0.00334363 -0.0984121 23.1046 0.0657991 2.05928 23.3081
0.0587362 1.87181 23.2946 0.0627962 2.05539 23.0872 0.0704288 2.27068 23.0776 0.0686381
2.18015 23.0297 0.0685309 6.96327 23.1659 0.103461 8.72435 23.6502 0.174314 6.41569
24.1667 0.135595 3.97612 23.9349 0.111575 3.99883 23.6417 0.010467 2.3544 23.0848
0.00554283 5.29907 23.6507 0.0806479 4.18587 24.4938 0.0607567 2.19421 24.4139 0.0256421
1.56103 23.6686 0.00659136 2.26256 24.3441 0.0280575 1.54279 24.2972 0.0286289 1.53438
23.7106 0.00367062 2.19761 23.6686 0.00659135 2.26256 24.3577 0.0234322 1.31507 24.8889
0.0124565 0.564747 24.8889 0.0124565 0.564747 25.0232 0.00712119 0.297544 25.0225 0.00405701
0.165873 25.0183 0.00242603 0.118567 25.0149 0.0028521 0.110105 25.0132 0.00306931 0.10733
25.0112 0.00323751 0.106889 25.0085 0.00336048 0.107578 25.0056 0.00346464 0.108872 25.0025
0.00348409 0.110613 24.9996 0.00346801 0.112522 24.9971 0.00346086 0.115299 24.9959 0.0034612
0.117145 25 0 0 25 0 0 25 2.57593e-13 -2.74395e-11
24.8798 0.00117711 0.0557785 24.9074 0.000787107 0.027963 24.9202 0.000691186 0.0396446 24.9108
0.000819477 0.0512176 24.8118 0.00377525 0.276551 24.8146 0.00346915 0.252901 24.8773 0.0020908
0.181922 24.8789 0.00234427 0.208217 24.8224 0.00404801 0.304977 24.8841 0.00613115 0.463327
24.9161 0.00347563 0.312167 24.9278 0.00380886 0.336243 24.8989 0.00679819 0.499334 24.8899
0.00674344 0.497459 24.9133 0.00945536 0.611835 24.9483 0.00515001 0.40909 24.9557 0.00589553
0.437603 24.9246 0.0109002 0.667637 24.9524 0.0121492 0.625669 24.9519 0.0156331 0.729554
24.9718 0.0093489 0.484461 24.9862 0.0054446 0.330634 24.9524 0.0121492 0.625668 24.9421
0.0140685 0.622857 24.9434 0.0139352 0.617589 25.0237 0.00766614 0.327246 25.0237 0.00766614
0.327246 24.9282 0.0155112 0.638787 25 1.53934e-13 5.88779e-12 24.9992 1.08332e-05 0.000416406
24.9989 1.30955e-05 0.000156799 24.9988 1.37628e-05 -0.000256098 24.9996 6.34841e-06 -0.000208239 25
2.09245e-13 -6.83931e-12 25.0216 0.00239846 0.105055 25.0217 0.0012975 0.0660977 25.0217 0.0012975
0.0660977 25.0256 0.00138213 0.0593256 25.0286 0.00149877 0.0600197 25.0299 0.00159231 0.0609542
25.03 0.00165317 0.0612392 25.0298 0.00169421 0.0610722 25.0294 0.00172416 0.0608842 25.029
0.00174977 0.0607664 25.0287 0.0017703 0.060758 25.0287 0.00177804 0.0607688 25.0287 0.00177821
0.0607353 25 0 0 25 0 0 24.9592 0.000341917 0.0349699
24.9652 0.000268729 0.0259407 24.9734 0.000259368 0.0341265 24.9567 0.000411786 0.0457844 24.9513
0.000744677 0.0908964 24.9522 0.000658597 0.0800988 24.9676 0.00059538 0.0809566 24.9566 0.000809166
0.101708 24.9662 0.000996223 0.125572 24.9828 0.000501721 0.0760922 24.9898 0.00058305 0.0865934
24.9771 0.00118164 0.143773 24.9704 0.00114695 0.140944 24.9864 0.00139069 0.158485 24.9966
0.000680235 0.0945589 25.0027 0.000796507 0.100901 24.9939 0.00165789 0.166683 24.9891 0.00163877
0.171214 25.0028 0.00202408 0.174337 25.0089 0.00101141 0.106423 25.0148 0.00125086 0.109703
25.0128 0.00259459 0.181928 25.0187 0.00154717 0.10935 25.0201 0.00204824 0.110481 25.022
0.00425847 0.183536 25.022 0.00425847 0.183536 25.0195 0.00316601 0.182307 25.0217 0.0012975
0.0660977 25 8.33945e-14 6.85874e-12 24.9996 8.75217e-06 0.000721792 24.9988 1.97245e-05 0.00202783
24.9979 2.38495e-05 0.00229573 24.997 2.73776e-05 0.00192712 24.9983 1.82768e-05 0.000829641 25.0217
0.0012975 0.0660977 25.02 0.0012339 0.0750157 25.0184 0.000858849 0.071075 25.0241 0.000556846
0.0291387 25.0261 0.000687831 0.0279827 25.027 0.000788676 0.0265441 25.0275 0.000862547 0.0251848
25.028 0.00091865 0.0241242 25.0283 0.000959966 0.0234701 25.0287 0.000994574 0.0231542 25.0289
0.00101964 0.0230521 25.0289 0.00101964 0.0230521 25.0295 0.00103378 0.0231397 25.03 0.00103945
0.0232276 25 0 0 24.9881 0.000249404 0.0425179 24.9881 0.000249404 0.0425179
24.9881 0.000249404 0.0425179 24.9919 0.000304062 0.0509941 24.9919 0.000304062 0.0509941 24.9969
0.000350315 0.0577756 24.9969 0.000350315 0.0577757 25.002 0.00040642 0.0628085 25.005 0.000259355
0.0421907 25.0089 0.000299668 0.0444843 25.0069 0.00046664 0.0665552 25.0114 0.000567066 0.0690639
25.0124 0.000350261 0.0457959 25.0154 0.000441697 0.0468478 25.0154 0.000700783 0.0707314 25.0211
0.000401931 0.0296319 25.0184 0.000848721 0.0709686 25.0175 0.000486862 0.0455755 25.0175 0.00031182
0.0308513 25.0241 0.000556846 0.0291387 25.0261 0.000687831 0.0279827 25.027 0.000788676 0.0265441
25.0275 0.000862547 0.0251848 25.028 0.00091865 0.0241242 25.0283 0.000959966 0.0234701 25.0287
0.000994574 0.0231542 25.0289 0.00101964 0.0230521 25 3.43331e-14 2.96703e-12 24.9999 7.19116e-06
0.000622892 24.9997 1.53956e-05 0.00155809 24.9974 3.65535e-05 0.00482964 24.998 2.79142e-05 0.00321836
24.9997 2.56869e-05 0.00317954 24.9964 6.11278e-05 0.00982108 24.9965 4.92817e-05 0.00719246 25.0002
3.87945e-05 0.00567304 24.9972 9.46747e-05 0.0169329 24.9959 8.00226e-05 0.0136883 25.0017 5.47607e-05
0.0087901 25.001 0.000133494 0.0240932 24.9981 0.000119573 0.0217215 25.0046 7.27774e-05 0.0117728
25.0087 9.27283e-05 0.0138751 25.0034 0.000161282 0.0284164 25.0291 0.000496813 0.0128774 25.0293
0.000502216 0.012936 25 0 0 25.0087 9.27283e-05 0.0138751 25.0068 0.000174487
0.0289953 25.0034 0.000161282 0.0284164 25.013 0.000116703 0.0148812 25.0127 0.00023084 0.0313709
25.0098 0.000210344 0.0322156 25.0169 0.000150331 0.0150828 25.0153 0.000297584 0.0335378 25.0201
0.000199122 0.0149096 25.0227 0.00026071 0.0144054 25.0245 0.000323918 0.0136623 25.0258 0.000373757
0.0130763 25.0268 0.000407656 0.012773 25.0275 0.000432583 0.0126485 25.028 0.000451498 0.012631
25.0284 0.000469645 0.0126831 25.0287 0.000485486 0.0127692 25.0291 0.000496813 0.0128774 25.0293
0.000502216 0.012936 25 1.33961e-14 7.55007e-13 25.0001 6.23002e-06 0.00035191 25.0002 1.29871e-05
0.00083408 25.0002 1.29871e-05 0.00083408 25.0002 1.29871e-05 0.00083408 25.0006 2.09004e-05 0.0015937
25.0016 3.03894e-05 0.00268135 25.0033 4.15214e-05 0.00399296 25.0059 5.40325e-05 0.00525161 25.0092
6.76958e-05 0.0061522 25 0 0 25.0002 1.29871e-05 0.00083408 25.0092 6.76958e-05
0.0061522 25.0129 8.34828e-05 0.00658063 25.0164 0.000103371 0.00666054 25.0194 0.000128971 0.00652276
25.0217 0.000160416 0.00622449 25.0236 0.000192644 0.0058901 25.025 0.000219979 0.00560912 25.026
0.00024127 0.00537546 25.0267 0.000259106 0.00515539 25.0273 0.000274603 0.00496316 25.0277 0.000288543
0.00481596 25.028 0.00030054 0.00471329 25.0285 0.000310098 0.00465148 25.0288 0.000314811 0.00462487
25 1.46854e-06 0 25.0001 5.92187e-06 0 25.0002 1.29871e-05 0.000834079 25.0003
1.22215e-05 0 25.0009 1.94524e-05 0 25.0019 2.79455e-05 0 25.0036 3.77914e-05
0 25.0062 4.88306e-05 0 25.0093 6.09224e-05 0 25 1.46854e-06 0
25.0093 6.09224e-05 0 25.0128 7.45323e-05 0 25.0162 9.10388e-05 0 25.019
0.000111135 0 25.0214 0.000134724 0 25.0233 0.000158712 0 25.0246 0.000179872
0 25.0257 0.000196964 0 25.0265 0.000211141 0 25.0271 0.000222973 0
25.0275 0.000233045 0 25.0279 0.000241381 0 25.0284 0.000247619 0 25.0286
0.000250709 0.00110756 27.635 -0.0610975 0.14941 25 0 0 25 0
0 27.6742 -0.0590004 0.138842 25 0 0 24.1365 0.187018 5.40845
24.0366 0.187171 5.36621 23.735 0.201325 5.59098 23.8716 0.199163 5.6072 24.7492
0.00355655 -0.1552 24.8365 0.00226209 -0.132239 22.9929 0.0695221 2.15923 23.0082 0.0670574
2.04786 23.1022 0.0640009 1.96921 25 0 0 24.6694 -0.066932 0.103895
22.9814 0.0719868 2.27165 25 0 0 25 0 0 25.3825
-0.0874624 0.193271 25.3316 -0.0871219 0.189527 22.1826 0.0619206 4.99828 22.7093 0.0619289
5.27594 22.7087 0.0619274 5.27607 23.4362 -0.199843 11.2472 23.5316 -0.223901 10.8029
23.5813 -0.215357 10.9015 23.4843 -0.190368 11.3343 24.8203 0.00207619 -0.0594288 24.7531
0.00301485 -0.0522966 24.8516 0.00144636 0.0397806 24.8563 0.00137328 0.0343933 24.8819 0.00105402
0.0191944 24.9079 0.00078126 0.0275321 24.8171 0.00319755 0.231709 24.775 0.00422802 0.281857
24.7798 0.00364866 0.233449 24.8147 0.00289781 0.199946 24.3122 0.159873 4.85687 24.2053
0.18142 5.33782 24.3446 0.154214 4.77545 24.7754 0.00452639 0.305671 23.1352 0.0612191
1.85344 23.3327 0.0547329 1.6923 24.857 0.00143719 0.0608922 24.835 0.0017049 0.0585912
24.7758 0.00483809 0.330235 24.8632 0.00832349 0.576146 24.8517 0.00788824 0.552501 24.8714
0.00607833 0.458366 26.4752 -0.011737 -0.229283 26.4966 -0.011994 -0.230759 25.5634 -0.00451641
-0.0868629 22.7084 0.0637882 4.46301 23.2064 0.0642969 4.75088 22.1718 0.0619205 4.99252
21.6779 0.061871 4.74932 24.4414 0.00721329 -1.30691 24.3493 0.00728643 -1.45011 24.5953
0.00452488 -1.55037 24.664 0.00489953 -1.35984 24.5941 0.00575022 -1.31999 23.6458 0.0582373
4.17246 23.0679 0.0569633 3.86268 24.3376 0.00883124 -1.20098 24.2778 0.00954054 -1.17867
24.1398 0.0100595 -1.31975 23.7434 0.0646937 5.03242 24.2651 0.0594583 4.53254 23.404
-0.160946 11.6932 23.3989 -0.159099 11.7158 23.3531 -0.168601 11.6424 23.3563 -0.169822
11.627 26.2097 -0.00853058 -0.210966 25 0 0 25 0 0
24.4762 0.00718563 -1.25274 24.2318 0.0133558 0.070401 24.093 0.0168668 0.164045 23.975
0.0194115 0.116972 24.1504 0.0151289 0.0170658 24.0217 0.128658 4.75314 23.9877 0.127326
4.72358 24.015 0.121541 4.50752 24.0519 0.12208 4.49829 25 0 0
25.0163 9.14192e-05 -0.0120946 25.0274 0.000125186 -0.0208655 25 0 0 25.0676
1.15748e-06 -0.0256044 25.1487 2.5064e-06 -0.0562973 25.1589 -2.7571e-05 -0.0609196 24.9959 0.000154421
-0.0250046 24.986 0.000180753 -0.0238122 24.9753 0.000298133 -0.0347584 24.9909 0.000252901 -0.0389533
23.7228 0.192758 5.3819 22.5587 0.219968 5.75167 22.9548 0.214693 5.72528 25
0 0 24.8913 0.0014906 -0.108309 24.8756 0.00150482 -0.0831605 25 0
0 25.9746 -0.00595599 -0.182384 24.9718 0.00213217 -0.310704 25.0377 0.00166076 -0.321936
25.106 0.00106987 -0.298064 25.0838 0.000761609 -0.19982 24.9987 0.00134324 -0.21419 24.729
0.00432005 -1.35922 24.8946 0.00284322 -1.35763 24.9423 0.00351502 -1.01571 24.6575 0.00644955
-0.954596 25 0 0 24.8403 -0.0679904 0.783844 23.0723 -0.0426612 10.2059
23.0866 -0.0455333 10.7832 23.1785 0.131528 9.32659 24.2731 0.00962229 -1.1727 23.311
-0.178623 11.5705 23.3131 -0.179412 11.56 24.9237 0.00182992 -0.201878 24.8597 0.00297996
-0.279125 24.9046 0.00270985 -0.309177 24.3006 0.0117263 -0.04821 24.3545 0.0105072 0.00630205
24.1636 0.0115178 -1.03448 24.4303 0.00926467 -0.823159 25.2833 -0.0867375 0.185755 25
0 0 23.673 -0.310038 7.63235 23.7815 -0.293723 7.14698 23.7506 -0.297738
7.24049 23.6351 -0.314615 7.74609 23.393 -0.209407 11.1609 23.4876 -0.232392 10.7048
23.5099 -0.330764 8.28335 23.5446 -0.327261 8.17651 24.0783 0.125004 4.56319 24.0537
0.130349 4.781 20.1426 0.101164 3.83169 20.0634 0.103951 4.11839 19.765 0.101816
4.20312 19.8545 0.0992385 3.90386 25.7388 -0.10329 13.3208 26.1164 -0.101756 13.4664
26.0194 -0.0890865 14.0755 25.5846 -0.0891943 13.8623 20.8889 0.151468 9.08145 21.1743
0.155244 9.311 20.9841 0.151824 9.91422 20.6111 0.148172 9.63339 24.1079 0.108822
4.02613 23.9852 0.119375 4.43819 24.0475 0.10651 3.96842 20.4226 0.102424 3.74751
20.3526 0.105369 4.0203 23.3005 0.103986 3.87993 23.2974 0.1042 3.88813 23.2514
0.10231 3.79946 23.3244 0.0975603 3.61738 23.3263 0.0975914 3.61911 21.3792 0.157434
8.78149 21.1414 0.153639 8.56919 23.3795 0.0984854 3.66906 26.6283 -0.151176 4.7844
26.759 -0.14949 4.78826 26.614 -0.156933 5.13929 25.1164 -0.161693 4.05567 25.05
-0.171446 4.40297 24.9958 -0.170922 4.3311 25.0623 -0.161125 3.98996 26.5917 -0.158361
5.20971 26.4579 -0.160096 5.1954 26.483 -0.152869 4.77112 24.5359 0.0113066 0.560736
24.4638 0.0136306 0.642657 24.4718 0.012323 0.564792 24.5321 0.0105805 0.507063 24.6335
0.00572558 0.219015 24.631 0.00579451 0.222972 24.5287 0.00781688 0.256502 24.5412 0.00744444
0.233444 24.5246 0.0126823 0.638516 24.4626 0.014944 0.721102 24.6425 0.0187622 1.00965
24.5986 0.0231197 1.18137 24.5713 0.0221394 1.1325 24.6134 0.018534 0.990708 24.3091
0.0116913 0.109655 24.1994 0.0145486 0.195165 24.6811 0.00443661 0.145568 24.559 0.00691054
0.200783 24.6052 0.00581225 0.151995 29.575 -0.106086 3.58766 29.3329 -0.102403 3.25366
29.4637 -0.0983654 3.01991 29.7268 -0.101842 3.33091 19.1781 0.0106911 -5.21194 19.2501
0.0133591 -4.48387 18.5685 0.0149628 -4.3338 18.3138 0.0123052 -5.1125 28.4462 -0.0355041
-0.993736 28.7362 -0.0358673 -1.40794 29.3615 -0.0435728 -1.00698 28.9173 -0.0425232 -0.660203
25.946 -0.00701893 -1.42793 25.9856 -0.00750369 -1.45343 26.0247 -0.00782795 -1.42421 19.8858
0.0119754 -4.49382 19.9427 0.00924168 -5.15738 27.9657 -0.0293231 -1.19801 28.1117 -0.0292264
-1.62475 20.2234 0.0983682 3.56002 19.9461 0.0966827 3.61976 19.3507 0.0158026 -3.89695
18.7854 0.0174517 -3.71327 19.8846 0.0143713 -3.97247 29.1857 -0.10637 3.46988 29.4072
-0.110224 3.82305 25.9041 -0.118243 12.7813 26.2526 -0.115775 12.8883 26.6111 -0.158109
5.21179 26.7794 -0.149226 4.78886 26.7712 -0.155901 5.21879 25.4093 -0.105374 13.1586
25.5868 -0.121319 12.6502 17.1353 0.0726968 3.92351 17.5149 0.07549 3.94043 17.3705
0.0773722 4.29001 17.0275 0.0746835 4.26375 17.0594 0.0734269 4.10171 28.9394 -0.105609
13.39 28.8787 -0.10514 13.2817 28.0308 -0.0983952 13.1677 28.4271 -0.0989436 13.4327
15.8516 0.0977948 6.87579 15.6136 0.0969511 6.75809 15.8198 0.0950141 6.57763 16.0315
0.095846 6.67059 25.2164 -0.0898117 13.6438 19.6656 0.206757 8.6999 19.6893 0.204161
8.74844 19.8459 0.187213 9.22157 19.6364 0.188824 9.0962 21.5021 0.159198 9.53206
21.2963 0.155276 10.1091 25.9302 -0.00571514 -0.891437 25.6823 -0.00362473 -1.14364 25.7802
-0.00498893 -1.32118 26.1891 -0.00919205 -1.30134 26.2744 -0.00971203 -1.10161 22.1234 0.0547451
0.550634 21.8429 0.0614392 0.819395 21.5362 0.0607031 0.708582 21.8652 0.0542429 0.416464
23.6007 0.0246031 -0.268026 23.5257 0.02324 -0.540591 23.9228 0.0173783 -0.528278 23.9364
0.0182746 -0.330037 22.1939 0.0480283 0.175819 22.4042 0.0484533 0.32727 19.3512 0.122226
6.70954 19.7546 0.125355 6.4877 19.7948 0.128952 6.88297 19.3736 0.125797 7.14412
17.7445 0.100144 13.8572 18.394 0.114853 15.0335 18.7115 0.136219 15.6406 18.1534
0.126951 14.399 15.6447 0.0997926 7.09509 16.0803 0.0987519 6.97449 15.884 0.100754
7.21162 20.4944 0.0995186 3.48832 23.5993 0.0326872 0.689913 23.5174 0.0362724 0.819547
23.3706 0.0398445 0.85677 23.4662 0.0358764 0.712675 22.3705 0.0539964 0.644438 22.1298
0.0604472 0.8936 29.1301 -0.110509 13.2453 29.2199 -0.111235 13.2051 31.8146 -0.116905
6.83016 32.2037 -0.115173 7.47843 31.7424 -0.11947 7.8409 31.4028 -0.121441 7.19052
28.83 -0.147541 9.19704 28.7413 -0.150586 8.58564 29.0857 -0.146666 8.47804 29.1981
-0.143662 9.09608 23.4102 0.101075 3.77929 23.411 0.101149 3.78241 23.3451 0.106036
3.97246 19.8908 0.219837 8.39786 20.0213 0.222034 8.41139 21.6275 0.161365 8.96122
28.9007 -0.105989 13.4825 28.595 -0.0998336 13.617 17.6584 0.0749025 13.5129 18.1053
0.088065 14.3525 15.377 0.0989599 6.93721 19.2916 -0.114074 9.14488 19.2916 -0.114074
9.14489 22.6929 -0.116033 10.7664 24.4564 -0.113611 11.3777 23.72 -0.11673 10.9559
31.1925 0.0823741 14.3717 30.7297 0.084936 14.8859 29.8433 0.0804513 14.2893 30.7294
0.0810127 14.0787 17.372 0.0878935 13.0456 17.6198 0.113312 13.3284 20.8472 0.200114
9.07737 20.046 0.205457 9.22556 20.1767 0.200114 9.28695 21.1152 0.192351 9.20877
22.4533 0.0355909 12.8489 21.9538 0.0347966 12.7969 20.5051 0.062691 11.8978 21.3594
0.057998 12.1932 19.2915 -0.114074 9.14488 17.9783 0.146282 10.4319 16.8551 0.158041
9.82088 15.2125 0.168199 9.55054 15.4114 0.157782 9.49598 17.8874 0.125065 9.87219
18.0517 0.126814 10.3216 17.5651 0.124928 10.6017 17.4145 0.123163 10.0724 25
0 0 25 0 0 26.5304 -0.0841542 0.228776 26.4446 -0.0850314
0.228519 26.6383 -0.144149 4.37718 26.7677 -0.142584 4.37928 25.3741 -0.00455444 -0.00770993
25.9563 -0.0124106 -0.00633124 25 0 0 25 0 0 29.1213
-0.0986736 2.94799 29.2344 -0.0948404 2.73556 28.2038 -0.0347034 -0.693955 28.5662 -0.0410608
-0.420167 28.9924 -0.102451 3.14585 26.7819 -0.142413 4.37951 27.4447 -0.0297642 -0.0503853
27.5789 -0.0334688 -0.017074 25.0486 -0.000555074 -0.00166687 25 0 0 26.4098
-0.0108733 -0.75914 26.4115 -0.0108879 -0.754827 26.0808 -0.00702534 -0.651346 26.0803 -0.0070213
-0.652087 27.827 -0.0290226 -0.876619 17.6784 0.073874 3.5641 17.1595 0.0716252 3.72023
17.2681 0.0710029 3.50229 16.9028 0.0504353 1.24901 16.9207 0.049276 1.06143 17.0802
0.0497169 1.04671 17.0624 0.0509666 1.21922 18.8832 0.0614057 1.34252 19.1466 0.0640594
1.44666 18.9463 0.0657106 1.69858 18.6812 0.062973 1.58953 19.0218 -0.115524 8.90862
23.2116 -0.119109 10.6409 27.286 -0.0261208 -0.0784274 23.5651 0.0322385 0.583699 23.6837
0.0294682 0.573971 23.9911 0.0179567 -0.174239 23.7183 0.0238562 -0.086105 22.6101 0.0478961
0.432029 19.0217 -0.115524 8.90862 17.8882 0.078685 3.9776 17.7359 0.0805192 4.3247
19.7487 0.12201 6.10829 19.3673 0.118991 6.29478 16.2444 0.0968152 6.75321 20.1509
0.140156 8.09633 20.3608 0.143891 8.46732 19.9853 0.140887 8.95191 19.7403 0.137128
8.52529 18.8605 0.149314 10.5382 19.5687 0.141234 11.0413 18.284 0.127063 9.66034
18.4436 0.128785 10.0332 20.124 0.127602 6.24852 20.1734 0.131236 6.60967 22.4463
0.140254 5.72023 22.5429 0.143131 5.85967 22.408 0.147908 6.21068 22.3 0.144881
6.062 21.7738 0.122508 4.73738 21.9746 0.119361 4.49671 22.0139 0.122406 4.68936
21.8172 0.125809 4.94679 28.9938 -0.10957 13.2762 26.4239 -0.185109 8.78927 26.668
-0.180347 8.82551 26.6351 -0.177133 9.40574 26.3772 -0.182187 9.36369 28.4069 -0.154443
8.67956 28.4747 -0.151298 9.28502 17.5665 0.0664551 13.0328 23.8966 -0.11054 12.3903
24.0317 -0.135254 12.0466 24.1573 -0.129305 12.1798 24.0103 -0.105972 12.5272 22.9754
0.0185666 13.1221 22.7757 0.0162664 13.2254 17.3813 0.106438 7.20938 17.9136 0.110337
7.17077 17.8084 0.113803 7.7289 17.4881 0.112108 7.8243 17.1775 0.110122 7.7853
17.2294 0.10796 7.48954 17.7792 0.123152 9.43641 17.334 0.121231 9.58323 25.7802
-0.112855 11.6949 26.5132 -0.109167 12.1046 29.0296 -0.131906 11.1149 29.4382 -0.129983
11.0487 29.447 -0.123466 11.6849 29.0298 -0.124748 11.7472 30.8697 -0.123357 10.7416
30.9485 -0.120696 11.1299 30.6585 -0.121856 11.1805 30.6153 -0.124468 10.8617 23.8611
-0.041744 15.0184 23.6181 -0.0387979 15.071 21.5085 -0.0100055 14.6419 22.0759 -0.0176719
14.6713 22.5286 -0.00638261 14.1135 22.5904 0.0235176 14.6222 21.9461 0.00949989 14.4173
22.4566 -0.01421 14.299 26.6063 -0.0979924 12.5762 27.8204 -0.100726 12.9398 27.5313
-0.100275 12.9293 25.8956 -0.0990895 12.4458 31.4354 0.0635874 9.62273 31.376 0.0642199