# vtk DataFile Version 2.0
track0
ASCII
DATASET POLYDATA
POINTS 15780 float
-1.001 -0.05 0.0011
-1.0008 -0.05 0.0011
-1.0006 -0.05 0.0011
-1.0004 -0.05 0.0011
-1.0002 -0.05 0.0011
-1 -0.05 0.0011
-0.9875 -0.05 0.0011
-0.975 -0.05 0.0011
-0.9625 -0.05 0.0011
-0.95 -0.05 0.0011
-0.9375 -0.05 0.00109999
-0.925 -0.05 0.00109999
-0.9125 -0.05 0.00109999
-0.9 -0.05 0.00109999
-0.8875 -0.05 0.00109999
-0.875 -0.05 0.00109999
-0.8625 -0.05 0.00109999
-0.85 -0.05 0.00109999
-0.8375 -0.05 0.00109998
-0.825 -0.0500001 0.00109998
-0.8125 -0.0500001 0.00109998
-0.8 -0.0500001 0.00109998
-0.7875 -0.0500001 0.00109998
-0.775 -0.0500001 0.00109998
-0.7625 -0.0500001 0.00109998
-0.75 -0.0500001 0.00109998
-0.7375 -0.0500001 0.00109997
-0.725 -0.0500001 0.00109997
-0.7125 -0.0500001 0.00109997
-0.7 -0.0500001 0.00109997
-0.6875 -0.0500001 0.00109997
-0.675 -0.0500001 0.00109997
-0.6625 -0.0500001 0.00109997
-0.65 -0.0500001 0.00109996
-0.6375 -0.0500001 0.00109996
-0.625 -0.0500001 0.00109996
-0.6125 -0.0500001 0.00109996
-0.6 -0.0500001 0.00109996
-0.5875 -0.0500001 0.00109996
-0.575 -0.0500001 0.00109996
-0.5625 -0.0500001 0.00109996
-0.55 -0.0500001 0.00109995
-0.5375 -0.0500001 0.00109995
-0.525 -0.0500001 0.00109995
-0.5125 -0.0500001 0.00109995
-0.5 -0.0500001 0.00109995
-0.4875 -0.0500001 0.00109995
-0.475 -0.0500001 0.00109995
-0.4625 -0.0500001 0.00109994
-0.45 -0.0500002 0.00109994
-0.4375 -0.0500002 0.00109994
-0.425 -0.0500002 0.00109994
-0.4125 -0.0500002 0.00109994
-0.4 -0.0500002 0.00109994
-0.3875 -0.0500002 0.00109994
-0.375 -0.0500002 0.00109994
-0.3625 -0.0500002 0.00109993
-0.35 -0.0500002 0.00109993
-0.3375 -0.0500002 0.00109993
-0.325 -0.0500002 0.00109993
-0.3125 -0.0500002 0.00109993
-0.3 -0.0500002 0.00109993
-0.2875 -0.0500002 0.00109993
-0.275 -0.0500002 0.00109993
-0.2625 -0.0500002 0.00109992
-0.25 -0.0500002 0.00109992
-0.2375 -0.0500002 0.00109992
-0.225 -0.0500002 0.00109992
-0.2125 -0.0500002 0.00109992
-0.2 -0.0500002 0.00109992
-0.1875 -0.0500002 0.00109992
-0.175 -0.0500002 0.00109992
-0.1625 -0.0500002 0.00109991
-0.15 -0.0500002 0.00109991
-0.1375 -0.0500002 0.00109991
-0.125 -0.0500002 0.00109991
-0.1125 -0.0500002 0.00109991
-0.1 -0.0500002 0.00109991
-0.0875 -0.0500002 0.00109991
-0.075 -0.0500002 0.00109991
-0.0625 -0.0500002 0.00109991
-0.05 -0.0500003 0.00109991
-0.0375 -0.0500003 0.0010999
-0.025 -0.0500003 0.0010999
-0.0125 -0.0500003 0.0010999
2.10607e-13 -0.0500003 0.0010999
0.0125 -0.0500003 0.0010999
0.025 -0.0500003 0.0010999
0.0375 -0.0500003 0.0010999
0.05 -0.0500003 0.0010999
0.0625 -0.0500003 0.0010999
0.075 -0.0500003 0.0010999
0.0875 -0.0500003 0.0010999
0.1 -0.0500003 0.00109989
0.1125 -0.0500003 0.00109989
0.125 -0.0500003 0.00109989
0.1375 -0.0500003 0.00109989
0.15 -0.0500003 0.00109989
0.1625 -0.0500003 0.00109989
0.175 -0.0500003 0.00109989
0.1875 -0.0500003 0.00109989
0.2 -0.0500003 0.00109989
0.2125 -0.0500003 0.00109989
0.225 -0.0500003 0.00109989
0.2375 -0.0500003 0.00109989
0.25 -0.0500003 0.00109989
0.2625 -0.0500003 0.00109988
0.275 -0.0500003 0.00109988
0.2875 -0.0500003 0.00109988
0.3 -0.0500003 0.00109988
0.3125 -0.0500003 0.00109988
0.325 -0.0500003 0.00109988
0.3375 -0.0500003 0.00109988
0.35 -0.0500003 0.00109988
0.3625 -0.0500003 0.00109988
0.375 -0.0500003 0.00109988
0.3875 -0.0500003 0.00109988
0.4 -0.0500004 0.00109988
0.4125 -0.0500004 0.00109988
0.425 -0.0500004 0.00109988
0.4375 -0.0500004 0.00109988
0.45 -0.0500004 0.00109988
0.4625 -0.0500004 0.00109988
0.475 -0.0500004 0.00109988
0.4875 -0.0500004 0.00109988
0.5 -0.0500004 0.00109988
0.5125 -0.0500004 0.00109988
0.525 -0.0500004 0.00109988
0.5375 -0.0500004 0.00109988
0.55 -0.0500004 0.00109988
0.5625 -0.0500004 0.00109988
0.575 -0.0500004 0.00109987
0.5875 -0.0500004 0.00109987
0.6 -0.0500004 0.00109987
0.6125 -0.0500004 0.00109987
0.625 -0.0500004 0.00109987
0.6375 -0.0500004 0.00109987
0.65 -0.0500004 0.00109987
0.6625 -0.0500004 0.00109987
0.675 -0.0500004 0.00109987
0.6875 -0.0500004 0.00109987
0.7 -0.0500004 0.00109987
0.7125 -0.0500004 0.00109987
0.725 -0.0500004 0.00109987
0.7375 -0.0500004 0.00109987
0.75 -0.0500004 0.00109987
0.7625 -0.0500004 0.00109987
0.775 -0.0500004 0.00109987
0.7875 -0.0500004 0.00109987
0.8 -0.0500004 0.00109987
0.8125 -0.0500004 0.00109987
0.825 -0.0500004 0.00109987
0.8375 -0.0500004 0.00109987
0.85 -0.0500004 0.00109987
0.8625 -0.0500004 0.00109987
0.875 -0.0500004 0.00109987
0.8875 -0.0500004 0.00109987
0.9 -0.0500004 0.00109987
0.9125 -0.0500005 0.00109988
0.925 -0.0500005 0.00109988
0.9375 -0.0500005 0.00109988
0.95 -0.0500005 0.00109988
0.9625 -0.0500005 0.00109988
0.975 -0.0500005 0.00109988
0.9875 -0.0500005 0.00109988
1 -0.0500005 0.00109988
1.0125 -0.0500005 0.00109988
1.025 -0.0500005 0.00109988
1.0375 -0.0500005 0.00109988
1.05 -0.0500005 0.00109988
1.0625 -0.0500005 0.00109988
1.075 -0.0500005 0.00109988
1.0875 -0.0500005 0.00109988
1.1 -0.0500005 0.00109988
1.1125 -0.0500005 0.00109988
1.125 -0.0500005 0.00109988
1.1375 -0.0500005 0.00109988
1.15 -0.0500005 0.00109988
1.1625 -0.0500005 0.00109988
1.175 -0.0500005 0.00109988
1.1875 -0.0500005 0.00109988
1.2 -0.0500005 0.00109988
1.2125 -0.0500005 0.00109988
1.225 -0.0500005 0.00109988
1.2375 -0.0500005 0.00109989
1.25 -0.0500005 0.00109989
1.2625 -0.0500005 0.00109989
1.275 -0.0500005 0.00109989
1.2875 -0.0500005 0.00109989
1.3 -0.0500005 0.00109989
1.3125 -0.0500005 0.00109989
1.325 -0.0500005 0.00109989
1.3375 -0.0500005 0.00109989
1.35 -0.0500005 0.00109989
1.3625 -0.0500005 0.00109989
1.375 -0.0500005 0.00109989
1.3875 -0.0500005 0.00109989
1.4 -0.0500005 0.00109989
1.4125 -0.0500005 0.00109989
1.425 -0.0500005 0.00109989
1.4375 -0.0500005 0.0010999
1.45 -0.0500005 0.0010999
1.4625 -0.0500005 0.0010999
1.475 -0.0500005 0.0010999
1.4875 -0.0500005 0.0010999
1.5 -0.0500006 0.0010999
1.5125 -0.0500006 0.0010999
1.525 -0.0500006 0.0010999
1.5375 -0.0500006 0.0010999
1.55 -0.0500006 0.0010999
1.5625 -0.0500006 0.0010999
1.575 -0.0500006 0.0010999
1.5875 -0.0500006 0.0010999
1.6 -0.0500006 0.0010999
1.6125 -0.0500006 0.00109991
1.625 -0.0500006 0.00109991
1.6375 -0.0500006 0.00109991
1.65 -0.0500006 0.00109991
1.6625 -0.0500006 0.00109991
1.675 -0.0500006 0.00109991
1.6875 -0.0500006 0.00109991
1.7 -0.0500006 0.00109991
1.7125 -0.0500006 0.00109991
1.725 -0.0500006 0.00109991
1.7375 -0.0500006 0.00109991
1.75 -0.0500006 0.00109991
1.7625 -0.0500006 0.00109992
1.775 -0.0500006 0.00109992
1.7875 -0.0500006 0.00109992
1.8 -0.0500006 0.00109992
1.8125 -0.0500006 0.00109992
1.825 -0.0500006 0.00109992
1.8375 -0.0500006 0.00109992
1.85 -0.0500006 0.00109992
1.8625 -0.0500006 0.00109992
1.875 -0.0500006 0.00109992
1.8875 -0.0500006 0.00109992
1.9 -0.0500006 0.00109992
1.9125 -0.0500006 0.00109993
1.925 -0.0500006 0.00109993
1.9375 -0.0500006 0.00109993
1.95 -0.0500006 0.00109993
1.9625 -0.0500006 0.00109993
1.975 -0.0500006 0.00109993
1.9875 -0.0500006 0.00109993
2 -0.0500006 0.00109993
2.0125 -0.0500006 0.00109993
2.025 -0.0500006 0.00109993
2.0375 -0.0500006 0.00109993
2.05 -0.0500006 0.00109993
2.0625 -0.0500006 0.00109993
2.075 -0.0500006 0.00109994
2.0875 -0.0500006 0.00109994
2.1 -0.0500006 0.00109994
2.1125 -0.0500006 0.00109994
2.125 -0.0500006 0.00109994
2.1375 -0.0500006 0.00109994
2.15 -0.0500006 0.00109994
2.1625 -0.0500006 0.00109994
2.175 -0.0500007 0.00109994
2.1875 -0.0500007 0.00109994
2.2 -0.0500007 0.00109994
2.2125 -0.0500007 0.00109994
2.225 -0.0500007 0.00109995
2.2375 -0.0500007 0.00109995
2.25 -0.0500007 0.00109995
2.2625 -0.0500007 0.00109995
2.275 -0.0500007 0.00109995
2.2875 -0.0500007 0.00109995
2.3 -0.0500007 0.00109995
2.3125 -0.0500007 0.00109995
2.325 -0.0500007 0.00109995
2.3375 -0.0500007 0.00109995
2.35 -0.0500007 0.00109995
2.3625 -0.0500007 0.00109995
2.375 -0.0500007 0.00109995
2.3875 -0.0500007 0.00109996
2.4 -0.0500007 0.00109996
2.4125 -0.0500007 0.00109996
2.425 -0.0500007 0.00109996
2.4375 -0.0500007 0.00109996
2.45 -0.0500007 0.00109996
2.4625 -0.0500007 0.00109996
2.475 -0.0500007 0.00109996
2.4875 -0.0500007 0.00109996
2.5 -0.0500007 0.00109996
2.5125 -0.0500007 0.00109996
2.525 -0.0500007 0.00109996
2.5375 -0.0500007 0.00109996
2.55 -0.0500007 0.00109996
2.5625 -0.0500007 0.00109997
2.575 -0.0500007 0.00109997
2.5875 -0.0500007 0.00109997
2.6 -0.0500007 0.00109997
2.6125 -0.0500007 0.00109997
2.625 -0.0500007 0.00109997
2.6375 -0.0500007 0.00109997
2.65 -0.0500007 0.00109997
2.6625 -0.0500007 0.00109997
2.675 -0.0500007 0.00109997
2.6875 -0.0500007 0.00109997
2.7 -0.0500007 0.00109997
2.7125 -0.0500007 0.00109997
2.725 -0.0500007 0.00109997
2.7375 -0.0500007 0.00109997
2.75 -0.0500007 0.00109997
2.7625 -0.0500007 0.00109998
2.775 -0.0500007 0.00109998
2.7875 -0.0500007 0.00109998
2.8 -0.0500007 0.00109998
2.8125 -0.0500007 0.00109998
2.825 -0.0500007 0.00109998
2.8375 -0.0500007 0.00109998
2.85 -0.0500007 0.00109998
2.8625 -0.0500008 0.00109998
2.875 -0.0500008 0.00109998
2.8875 -0.0500008 0.00109998
2.9 -0.0500008 0.00109998
2.9125 -0.0500008 0.00109998
2.925 -0.0500008 0.00109998
2.9375 -0.0500008 0.00109998
2.95 -0.0500008 0.00109998
2.9625 -0.0500008 0.00109998
2.975 -0.0500008 0.00109998
2.9875 -0.0500008 0.00109998
3 -0.0500008 0.00109998
3.0125 -0.0500008 0.00109999
3.025 -0.0500008 0.00109999
3.0375 -0.0500008 0.00109999
3.05 -0.0500008 0.00109999
3.0625 -0.0500008 0.00109999
3.075 -0.0500008 0.00109999
3.0875 -0.0500008 0.00109999
3.1 -0.0500008 0.00109999
3.1125 -0.0500008 0.00109999
3.125 -0.0500008 0.00109999
3.1375 -0.0500008 0.00109999
3.15 -0.0500008 0.00109999
3.1625 -0.0500008 0.00109999
3.175 -0.0500008 0.00109999
3.1875 -0.0500008 0.00109999
3.2 -0.0500008 0.00109999
3.2125 -0.0500008 0.00109999
3.225 -0.0500008 0.00109999
3.2375 -0.0500008 0.00109999
3.25 -0.0500008 0.00109999
3.2625 -0.0500008 0.00109999
3.275 -0.0500008 0.00109999
3.2875 -0.0500008 0.00109999
3.3 -0.0500008 0.00109999
3.3125 -0.0500008 0.00109999
3.325 -0.0500008 0.00109999
3.3375 -0.0500008 0.00109999
3.35 -0.0500008 0.0011
3.3625 -0.0500008 0.0011
[...]
POINT_DATA 15780
 FIELD attributes 2
p 1 15780 float
-0.031098 -0.031114 -0.0311301 -0.0311461 -0.0311622 -0.0311782 -0.0321097 -0.0330334 -0.0339571 -0.0348809 -0.0359013 -0.0369652 -0.0380315 -0.0390979 -0.0401642 -0.0411839 -0.0421673 -0.0431321 -0.0440969 -0.0450617 -0.0459748 -0.0468727 -0.0477752 -0.0486777 -0.0495803 -0.050477 -0.0513776 -0.0522791 -0.0531806 -0.0540821 -0.0549829 -0.0558904 -0.0567984 -0.0577063 -0.0586143 -0.0595217 -0.0604213 -0.0613188 -0.0622163 -0.0631138 -0.0640084 -0.0648874 -0.0657646 -0.0666417 -0.0675189 -0.0683939 -0.0692513 -0.0701066 -0.0709619 -0.0718172 -0.0726706 -0.0735052 -0.0743372 -0.0751693 -0.0760013 -0.076831 -0.0776393 -0.0784444 -0.0792496 -0.0800548 -0.0808571 -0.0816352 -0.0824095 -0.0831837 -0.083958 -0.0847287 -0.0854728 -0.0862128 -0.0869527 -0.0876927 -0.0884287 -0.0891361 -0.0898386 -0.0905412 -0.0912437 -0.0919417 -0.092609 -0.0932711 -0.0939333 -0.0945954 -0.0952526 -0.0958771 -0.0964959 -0.0971147 -0.0977336 -0.0983469 -0.0989258 -0.099499 -0.100072 -0.100645 -0.101213 -0.101745 -0.102271 -0.102798 -0.103324 -0.103844 -0.104328 -0.104806 -0.105284 -0.105761 -0.106233 -0.106667 -0.107094 -0.10752 -0.107947 -0.108367 -0.108747 -0.10912 -0.109493 -0.109865 -0.110231 -0.110555 -0.110872 -0.111189 -0.111506 -0.111816 -0.112084 -0.112344 -0.112604 -0.112864 -0.113117 -0.113327 -0.11353 -0.113732 -0.113935 -0.11413 -0.114282 -0.114426 -0.11457 -0.114714 -0.11485 -0.114943 -0.115028 -0.115114 -0.115199 -0.115277 -0.115313 -0.115342 -0.115371 -0.115399 -0.115421 -0.115403 -0.115377 -0.115352 -0.115326 -0.115294 -0.115223 -0.115145 -0.115068 -0.11499 -0.114905 -0.114782 -0.114653 -0.114523 -0.114394 -0.114257 -0.114083 -0.113902 -0.113721 -0.113539 -0.113351 -0.113127 -0.112897 -0.112666 -0.112436 -0.112198 -0.111928 -0.111651 -0.111374 -0.111097 -0.110814 -0.1105 -0.110179 -0.109858 -0.109538 -0.10921 -0.108854 -0.108491 -0.108129 -0.107766 -0.107397 -0.107001 -0.106599 -0.106197 -0.105795 -0.105387 -0.104954 -0.104516 -0.104078 -0.103639 -0.103195 -0.102729 -0.102259 -0.101788 -0.101318 -0.100843 -0.100349 -0.0998505 -0.0993524 -0.0988543 -0.0983521 -0.0978333 -0.0973108 -0.0967884 -0.0962659 -0.0957397 -0.0951987 -0.0946543 -0.09411 -0.0935656 -0.0930175 -0.0924566 -0.0918928 -0.091329 -0.0907652 -0.0901983 -0.0896206 -0.0890405 -0.0884603 -0.0878801 -0.087297 -0.0867055 -0.0861121 -0.0855187 -0.0849253 -0.0843296 -0.0837278 -0.0831243 -0.0825207 -0.0819172 -0.0813117 -0.080702 -0.0800912 -0.0794804 -0.0788695 -0.0782573 -0.0776428 -0.0770274 -0.076412 -0.0757966 -0.07518 -0.074563 -0.0739456 -0.0733282 -0.0727107 -0.0720926 -0.0714758 -0.0708589 -0.0702419 -0.0696249 -0.0690073 -0.0683928 -0.0677784 -0.0671641 -0.0665497 -0.0659354 -0.0653253 -0.0647156 -0.0641059 -0.0634962 -0.0628866 -0.0622827 -0.0616794 -0.0610762 -0.060473 -0.0598703 -0.0592744 -0.0586794 -0.0580844 -0.0574894 -0.056895 -0.0563085 -0.0557232 -0.055138 -0.0545527 -0.0539685 -0.053393 -0.0528189 -0.0522448 -0.0516707 -0.0510977 -0.0505343 -0.0499725 -0.0494107 -0.048849 -0.0482886 -0.0477386 -0.0471902 -0.0466419 -0.0460935 -0.0455467 -0.0450107 -0.0444767 -0.0439426 -0.0434086 -0.0428763 -0.0423555 -0.0418365 -0.0413176 -0.0407986 -0.0402815 -0.0397762 -0.039273 -0.0387698 -0.0382665 -0.0377653 -0.0372762 -0.0367893 -0.0363023 -0.0358153 -0.0353304 -0.0348578 -0.0343874 -0.0339171 -0.0334467 -0.0329785 -0.0325228 -0.0320693 -0.0316159 -0.0311624 -0.0307111 -0.0302723 -0.0298359 -0.0293995 -0.0289631 -0.028529 -0.0281073 -0.027688 -0.0272687 -0.0268493 -0.0264324 -0.0260277 -0.0256255 -0.0252232 -0.024821 -0.0244212 -0.0240336 -0.0236485 -0.0232634 -0.0228783 -0.0224956 -0.0221252 -0.0217573 -0.0213894 -0.0210216 -0.0206561 -0.0203029 -0.0199522 -0.0196014 -0.0192507 -0.0189023 -0.0185656 -0.0182316 -0.0178976 -0.0175636 -0.017232 -0.0169117 -0.0165938 -0.0162759 -0.015958 -0.0156425 -0.015338 -0.0150356 -0.0147333 -0.014431 -0.0141312 -0.0138419 -0.0135548 -0.0132677 -0.0129807 -0.0126962 -0.0124219 -0.0121498 -0.0118777 -0.0116056 -0.0113358 -0.0110761 -0.0108187 -0.0105612 -0.0103038 -0.0100486 -0.00980327 -0.00956011 -0.00931696 -0.0090738 -0.00883285 -0.00860138 -0.00837194 -0.00814251 -0.00791308 -0.00768573 -0.00746738 -0.00725113 -0.00703488 -0.00681864 -0.00660447 -0.00639895 -0.00619545 -0.00599195 -0.00578846 -0.00558696 -0.00539374 -0.00520263 -0.00501151 -0.0048204 -0.00463139 -0.00445035 -0.00427141 -0.00409248 -0.00391355 -0.00373666 -0.00356743 -0.00340025 -0.00323307 -0.00306589 -0.00290076 -0.00274271 -0.00258653 -0.00243036 -0.00227418 -0.00212004 -0.00197253 -0.00182655 -0.00168057 -0.00153459 -0.00139039 -0.00125243 -0.00111607 -0.000979716 -0.000843358 -0.000708775 -0.000580101 -0.000453037 -0.000325972 -0.000198908 -7.34891e-05 4.6178e-05 0.00016423 0.000282281 0.000400333 0.000516766 0.000627752 0.000737152 0.000846552 0.000955952 0.00106373 0.00116646 0.00126765 0.00136884 0.00147003 0.00156963 0.00166452 0.00175796 0.00185139 0.00194482 0.00203674 0.00212428 0.00221038 0.00229649 0.00238259 0.00246722 0.00254773 0.0026269 0.00270607 0.00278524 0.00286302 0.00293696 0.00300958 0.0030822 0.00315483 0.00322606 0.00329376 0.00336021 0.00342666 0.00349311 0.00355826 0.00362011 0.00368075 0.00374138 0.00380202 0.00386137 0.0039177 0.00397287 0.00402805 0.00408323 0.0041372 0.0041884 0.00423845 0.00428851 0.00433856 0.00438742 0.00443372 0.00447896 0.00452419 0.00456942 0.00461352 0.00465529 0.00469599 0.0047367 0.0047774 0.004817 0.00485444 0.00489091 0.00492738 0.00496385 0.00499926 0.00503276 0.00506526 0.00509777 0.00513028 0.00516174 0.00519148 0.00522029 0.0052491 0.00527792 0.00530576 0.00533203 0.0053574 0.00538276 0.00540813 0.00543253 0.00545553 0.00547769 0.00549985 0.00552201 0.00554326 0.00556329 0.00558248 0.00560166 0.00562085 0.00563913 0.00565636 0.00567279 0.00568923 0.00570566 0.00572125 0.00573593 0.00574982 0.00576371 0.0057776 0.00579066 0.00580292 0.00581446 0.00582601 0.00583755 0.00584832 0.00585842 0.0058678 0.00587717 0.00588655 0.00589515 0.00590322 0.00591062 0.00591801 0.0059254 0.00593208 0.00593832 0.0059439 0.00594947 0.00595504 0.0059599 0.00596444 0.00596836 0.00597228 0.0059762 0.00597944 0.00598248 0.00598489 0.0059873 0.00598972 0.00599145 0.00599309 0.00599413 0.00599517 0.00599621 0.00599663 0.00599702 0.00599683 0.00599663 0.00599643 0.0059956 0.00599484 0.00599353 0.00599223 0.00599092 0.00598903 0.00598729 0.005985 0.00598271 0.00598042 0.00597754 0.00597489 0.00597172 0.00596855 0.00596538 0.00596167 0.00595824 0.00595429 0.00595035 0.00594641 0.00594192 0.00593779 0.00593318 0.00592857 0.00592396 0.00591883 0.00591415 0.00590897 0.00590379 0.00589862 0.00589293 0.00588774 0.0058821 0.00587645 0.0058708 0.00586467 0.0058591 0.00585307 0.00584704 0.00584101 0.0058345 0.0058286 0.00582227 0.00581594 0.00580961 0.00580283 0.00579671 0.00579017 0.00578362 0.00577707 0.00577007 0.0057638 0.00575711 0.00575042 0.00574373 0.00573661 0.00573027 0.00572351 0.00571676 0.00571 0.00570281 0.00569647 0.00568971 0.00568296 0.00567621 0.00566904 0.00566276 0.00565608 0.0056494 0.00564272 0.00563563 0.00562948 0.00562294 0.00561639 0.00560985 0.0056029 0.00559695 0.0055906 0.00558426 0.00557791 0.00557118 0.00556548 0.00555939 0.0055533 0.00554721 0.00554074 0.00553535 0.00552957 0.0055238 0.00551802 0.00551187 0.00550684 0.00550143 0.00549602 0.0054906 0.00548481 0.00548018 0.00547516 0.00547015 0.00546513 0.00545976 0.00545556 0.00545097 0.00544638 0.00544179 0.00543682 0.00543304 0.00542887 0.0054247 0.00542053 0.00541599 0.0054126 0.00540879 0.00540497 0.00540116 0.00539695 0.00539375 0.00539011 0.00538646 0.00538282 0.00537875 0.00537534 0.00537142 0.0053675 0.00536358 0.00535918 0.00535427 0.00534854 0.00534281 0.00533709 0.00533057 0.00532179 0.00531258 0.00530337 0.00529416 0.00528446 0.00525833 0.00522667 0.00519502 0.00516336 0.00512682 0.00511533 0.00511798 0.00512063 0.00512328 0.0051489 0.00523249 0.00530853 0.00538788 0.00545084 0.00549645 0.00548942 0.00548558 0.00548174 0.00547793 0.00547639 0.00550326 0.00553093 0.0055586 0.00557827 0.00559922 0.00561314 0.00563198 0.00565085 0.00566972 0.00568404 0.00574692 0.00581192 0.00587693 0.00594193 0.00599843 0.00608985 0.00616595 0.00624204 0.00631814 0.00632327 0.00630864 0.00628925 0.00626986 0.00625048 0.00624059 0.00603973 0.00581816 0.00559659 0.00537503 0.00504765 0.00456766 0.00407378 0.00357989 0.00308601 0.00262192 0.00235215 0.00207485 0.00179754 0.00152024 0.0012729 0.00117431 0.00106928 0.000964258 0.000859234 0.000773589 0.000667676 0.000556206 0.000444735 0.000333264 0.000255278
-0.0319474 -0.0319665 -0.0319856 -0.0320047 -0.0320238 -0.0320429 -0.0327438 -0.0336214 -0.034404 -0.0351665 -0.0362247 -0.0372615 -0.0382518 -0.0392543 -0.0403137 -0.0412976 -0.0422588 -0.0432248 -0.0441654 -0.0451007 -0.0460066 -0.0469046 -0.0478107 -0.0487166 -0.0496218 -0.0505268 -0.0514185 -0.0523222 -0.0532309 -0.0541406 -0.055061 -0.0559661 -0.0568783 -0.0577901 -0.0586996 -0.0596146 -0.060516 -0.0614143 -0.0623139 -0.0632137 -0.0641099 -0.0649909 -0.0658709 -0.0667505 -0.0676281 -0.068504 -0.0693622 -0.0702178 -0.071076 -0.0719348 -0.0727913 -0.0736253 -0.0744607 -0.0752956 -0.0761279 -0.0769616 -0.0777689 -0.0785742 -0.079382 -0.0801902 -0.0809969 -0.0817726 -0.0825498 -0.0833264 -0.0841008 -0.0848768 -0.0856176 -0.0863576 -0.0870999 -0.0878426 -0.088585 -0.0892874 -0.0899925 -0.0906973 -0.0913999 -0.0921053 -0.0927666 -0.0934288 -0.0940929 -0.0947575 -0.0954234 -0.0960403 -0.0966613 -0.097282 -0.0979007 -0.0985235 -0.0990925 -0.0996655 -0.10024 -0.100815 -0.101395 -0.101914 -0.102441 -0.102969 -0.103495 -0.104029 -0.104502 -0.104979 -0.105457 -0.105936 -0.106421 -0.106843 -0.10727 -0.107697 -0.108124 -0.108555 -0.108925 -0.109298 -0.10967 -0.110043 -0.110418 -0.110733 -0.111049 -0.111365 -0.111683 -0.112001 -0.11226 -0.11252 -0.11278 -0.113039 -0.113299 -0.113501 -0.113703 -0.113905 -0.114108 -0.11431 -0.114454 -0.114598 -0.114742 -0.114886 -0.115029 -0.115111 -0.115197 -0.115282 -0.115367 -0.115455 -0.115479 -0.115508 -0.115536 -0.115565 -0.115599 -0.115566 -0.11554 -0.115514 -0.115489 -0.115469 -0.115385 -0.115307 -0.115227 -0.115147 -0.115074 -0.114938 -0.114805 -0.114673 -0.114543 -0.114415 -0.114229 -0.114047 -0.113863 -0.113678 -0.113498 -0.113263 -0.113029 -0.112795 -0.112564 -0.112335 -0.112053 -0.111776 -0.111496 -0.111215 -0.110939 -0.110614 -0.11029 -0.109966 -0.109645 -0.109324 -0.108959 -0.108596 -0.108231 -0.107866 -0.107502 -0.107099 -0.106695 -0.106291 -0.105889 -0.105486 -0.105045 -0.104607 -0.104167 -0.103727 -0.103288 -0.102812 -0.102339 -0.101866 -0.101395 -0.100927 -0.100421 -0.0999227 -0.0994215 -0.0989199 -0.0984248 -0.0978957 -0.0973695 -0.0968438 -0.0963209 -0.0958007 -0.095251 -0.0947063 -0.0941589 -0.093611 -0.0930679 -0.0924994 -0.0919323 -0.0913658 -0.0908017 -0.0902385 -0.0896539 -0.0890734 -0.0884906 -0.0879073 -0.0873278 -0.08673 -0.0861336 -0.0855377 -0.0849439 -0.0843512 -0.0837436 -0.0831397 -0.0825337 -0.0819273 -0.0813246 -0.0807097 -0.0800962 -0.0794831 -0.078872 -0.0782618 -0.0776427 -0.077027 -0.0764094 -0.0757915 -0.0751768 -0.0745557 -0.0739359 -0.0733165 -0.0726988 -0.0720821 -0.0714617 -0.0708445 -0.0702256 -0.0696065 -0.0689903 -0.0683727 -0.0677564 -0.0671405 -0.0665259 -0.0659124 -0.0652997 -0.0646898 -0.0640786 -0.0634671 -0.0628582 -0.0622522 -0.0616473 -0.0610427 -0.0604394 -0.0598369 -0.0592393 -0.0586441 -0.0580479 -0.0574514 -0.0568572 -0.0562694 -0.0556829 -0.0550965 -0.0545111 -0.0539267 -0.0533503 -0.0527761 -0.052201 -0.0516257 -0.0510524 -0.0504885 -0.0499258 -0.0493631 -0.0488013 -0.0482404 -0.0476901 -0.0471417 -0.0465926 -0.0460434 -0.0454959 -0.0449601 -0.0444253 -0.0438907 -0.0433566 -0.0428235 -0.0423029 -0.041784 -0.0412645 -0.040745 -0.040227 -0.0397223 -0.0392186 -0.0387151 -0.0382119 -0.0377095 -0.0372212 -0.0367343 -0.036247 -0.0357597 -0.0352737 -0.0348021 -0.0343315 -0.033861 -0.0333907 -0.0329212 -0.0324667 -0.0320132 -0.0315597 -0.0311061 -0.0306535 -0.0302161 -0.0297797 -0.0293433 -0.0289069 -0.0284714 -0.0280512 -0.027632 -0.0272127 -0.0267935 -0.0263752 -0.0259721 -0.0255701 -0.025168 -0.0247658 -0.0243645 -0.0239786 -0.0235935 -0.0232085 -0.0228236 -0.0224396 -0.0220706 -0.0217029 -0.0213353 -0.0209674 -0.0206008 -0.0202488 -0.0198982 -0.0195477 -0.0191972 -0.0188479 -0.0185125 -0.0181785 -0.0178446 -0.0175107 -0.017178 -0.0168594 -0.0165416 -0.0162239 -0.0159062 -0.0155895 -0.015287 -0.014985 -0.014683 -0.0143808 -0.0140791 -0.0137926 -0.0135056 -0.0132189 -0.0129323 -0.0126454 -0.012374 -0.0121024 -0.0118307 -0.0115586 -0.0112864 -0.0110294 -0.010772 -0.0105149 -0.0102579 -0.0100004 -0.00975766 -0.00951496 -0.00927219 -0.00902909 -0.00878617 -0.00855719 -0.00832784 -0.0080989 -0.00787004 -0.0076407 -0.00742502 -0.0072095 -0.00699387 -0.00677774 -0.00656188 -0.00635879 -0.0061554 -0.00595254 -0.00574979 -0.00554675 -0.00535577 -0.0051654 -0.00497492 -0.00478389 -0.00459341 -0.00441426 -0.00423538 -0.00405691 -0.00387852 -0.0037005 -0.00353249 -0.00336555 -0.00319857 -0.00303143 -0.0028651 -0.00270848 -0.00255237 -0.00239636 -0.00224038 -0.00208505 -0.00193936 -0.00179378 -0.00164815 -0.00150228 -0.00135672 -0.0012213 -0.00108508 -0.000949232 -0.000813474 -0.000676954 -0.000550989 -0.000424589 -0.000298088 -0.000171136 -4.38965e-05 7.33744e-05 0.000191341 0.000308867 0.000426296 0.000544462 0.000653279 0.000762131 0.000871071 0.000980402 0.00108975 0.00119046 0.00129159 0.00139236 0.00149305 0.00159412 0.00168712 0.00178009 0.00187312 0.00196649 0.00205979 0.00214545 0.00223149 0.0023172 0.00240285 0.00248882 0.00256756 0.00264627 0.00272505 0.00280416 0.0028832 0.00295536 0.00302792 0.00310016 0.00317231 0.0032448 0.00331086 0.00337687 0.00344295 0.00350934 0.00357565 0.0036359 0.00369647 0.00375678 0.00381702 0.00387752 0.00393232 0.00398715 0.00404204 0.00409716 0.0041523 0.00420191 0.00425191 0.00430167 0.00435138 0.0044014 0.00444619 0.00449106 0.00453599 0.00458117 0.00462642 0.00466663 0.00470728 0.00474769 0.00478805 0.00482877 0.00486476 0.00490089 0.00493708 0.00497349 0.00501003 0.00504203 0.00507449 0.00510673 0.00513892 0.00517149 0.00519982 0.00522832 0.00525688 0.00528564 0.00531457 0.00533942 0.00536474 0.00538986 0.00541494 0.00544042 0.00546208 0.00548396 0.00550589 0.00552801 0.00555032 0.00556899 0.00558813 0.00560709 0.00562601 0.00564535 0.00566128 0.00567746 0.00569368 0.00571007 0.0057267 0.00574005 0.0057539 0.00576759 0.00578123 0.00579531 0.00580634 0.00581764 0.00582899 0.00584049 0.00585227 0.0058611 0.00587044 0.00587963 0.00588879 0.0058984 0.00590526 0.00591244 0.00591965 0.00592701 0.00593467 0.00593969 0.00594523 0.00595064 0.00595601 0.00596186 0.00596524 0.00596896 0.00597272 0.00597661 0.00598083 0.00598267 0.00598505 0.00598731 0.00598955 0.00599227 0.00599276 0.00599363 0.00599453 0.00599555 0.00599693 0.00599615 0.00599592 0.00599559 0.00599523 0.00599537 0.00599349 0.00599203 0.00599059 0.00598927 0.00598835 0.00598548 0.00598317 0.00598075 0.00597831 0.00597639 0.00597266 0.00596935 0.00596606 0.00596287 0.00596008 0.00595556 0.0059516 0.00594754 0.00594347 0.0059399 0.00593473 0.00593 0.00592529 0.00592066 0.00591646 0.00591071 0.00590552 0.00590024 0.00589495 0.00589019 0.00588398 0.00587823 0.00587249 0.00586683 0.00586162 0.005855 0.00584896 0.00584284 0.00583671 0.00583112 0.00582422 0.00581779 0.00581138 0.00580504 0.00579917 0.00579203 0.00578547 0.00577885 0.00577221 0.00576613 0.00575886 0.00575209 0.00574534 0.00573863 0.00573243 0.00572508 0.00571831 0.00571149 0.00570466 0.00569839 0.00569106 0.00568425 0.00567744 0.00567067 0.00566443 0.00565715 0.00565046 0.00564373 0.00563699 0.00563081 0.00562369 0.00561709 0.0056105 0.00560395 0.00559794 0.00559099 0.00558464 0.00557825 0.00557186 0.00556605 0.00555938 0.00555325 0.00554714 0.00554104 0.00553551 0.00552913 0.00552335 0.00551755 0.00551175 0.00550654 0.00550054 0.00549512 0.00548969 0.00548427 0.00547945 0.00547383 0.00546882 0.00546381 0.0054588 0.0054544 0.00544923 0.00544468 0.00544012 0.00543554 0.0054316 0.00542684 0.00542268 0.00541859 0.00541452 0.00541106 0.00540669 0.00540309 0.00539946 0.00539567 0.00539269 0.00538852 0.00538493 0.00538169 0.00537854 0.00537597 0.00537164 0.00536883 0.00536582 0.00536204 0.00535976 0.00535443 0.00534918 0.00534618 0.00534371 0.00534128 0.00533223 0.00533049 0.00532757 0.00531962 0.00531858 0.00530425 0.00527968 0.00527516 0.00527538 0.00526464 0.00522174 0.0052333 0.00524367 0.00524894 0.00531704 0.00541049 0.00547405 0.00553761 0.00557558 0.00552927 0.00551004 0.00550299 0.00549595 0.00548844 0.00549243 0.00550997 0.00552812 0.00554628 0.00555797 0.00556922 0.00557027 0.00557133 0.00557238 0.0055733 0.005574 0.00559882 0.00562776 0.00565679 0.00568582 0.00565919 0.00569734 0.00575997 0.00582298 0.00588598 0.00596596 0.00618023 0.00626923 0.00635168 0.00642778 0.00632085 0.0063567 0.00633732 0.00632086 0.00631139 0.00625601 0.00620946 0.00598789 0.00576633 0.00553218 0.00503858 0.00469896 0.00420507 0.00371119 0.00321463 0.00259583 0.0024142 0.0021369 0.0018596 0.00158229 0.0012425 0.0012234 0.00111837 0.00101335 0.000908327 0.000751157 0.000715162 0.000603694 0.000492225 0.000380757 0.000206756