# Force coefficients
# liftDir     : (0.000000e+00 0.000000e+00 1.000000e+00)
# dragDir     : (1.000000e+00 0.000000e+00 0.000000e+00)
# pitchAxis   : (0.000000e+00 1.000000e+00 0.000000e+00)
# magUInf     : 2.500000e+01
# lRef        : 1.420000e+00
# Aref        : 2.500000e-01
# CofR        : (7.200000e-01 0.000000e+00 0.000000e+00)
# Time        	Cm            	Cd            	Cl            	Cl(f)         	Cl(r)         
0             	5.539411e-03	1.281850e-02	1.464170e-03	6.271497e-03	-4.807326e-03
1             	-2.467104e-01	3.355492e-01	-7.533167e-01	-6.233687e-01	-1.299480e-01
2             	-4.030176e-01	4.744210e-01	-1.161891e+00	-9.839630e-01	-1.779279e-01
3             	-4.836313e-01	5.335767e-01	-1.357725e+00	-1.162494e+00	-1.952313e-01
4             	-5.320364e-01	5.582961e-01	-1.465275e+00	-1.264674e+00	-2.006012e-01
5             	-5.694914e-01	5.718383e-01	-1.544683e+00	-1.341833e+00	-2.028502e-01
6             	-6.020007e-01	5.810546e-01	-1.611733e+00	-1.407867e+00	-2.038656e-01
7             	-6.295937e-01	5.865279e-01	-1.665751e+00	-1.462469e+00	-2.032820e-01
8             	-6.530506e-01	5.885081e-01	-1.708384e+00	-1.507243e+00	-2.011416e-01
9             	-6.725074e-01	5.880372e-01	-1.741102e+00	-1.543058e+00	-1.980433e-01
10            	-6.886610e-01	5.863230e-01	-1.766574e+00	-1.571948e+00	-1.946258e-01
11            	-7.013236e-01	5.842882e-01	-1.785781e+00	-1.594214e+00	-1.915671e-01
12            	-7.123990e-01	5.826657e-01	-1.802778e+00	-1.613788e+00	-1.889898e-01
13            	-7.221935e-01	5.814414e-01	-1.818137e+00	-1.631262e+00	-1.868750e-01
14            	-7.304612e-01	5.803272e-01	-1.831215e+00	-1.646069e+00	-1.851463e-01
15            	-7.379875e-01	5.794475e-01	-1.843379e+00	-1.659677e+00	-1.837017e-01
16            	-7.445057e-01	5.783531e-01	-1.853740e+00	-1.671376e+00	-1.823640e-01
17            	-7.497253e-01	5.769926e-01	-1.861725e+00	-1.680588e+00	-1.811370e-01
18            	-7.549935e-01	5.761404e-01	-1.870272e+00	-1.690129e+00	-1.801425e-01
19            	-7.597553e-01	5.753058e-01	-1.877961e+00	-1.698736e+00	-1.792250e-01
20            	-7.637056e-01	5.742216e-01	-1.883987e+00	-1.705699e+00	-1.782880e-01
21            	-7.671095e-01	5.730672e-01	-1.888957e+00	-1.711588e+00	-1.773692e-01
22            	-7.695899e-01	5.718463e-01	-1.892284e+00	-1.715732e+00	-1.765522e-01
23            	-7.721343e-01	5.708784e-01	-1.895879e+00	-1.720074e+00	-1.758051e-01
24            	-7.743695e-01	5.700329e-01	-1.899030e+00	-1.723884e+00	-1.751455e-01
25            	-7.762278e-01	5.692263e-01	-1.901546e+00	-1.727001e+00	-1.745452e-01
26            	-7.777528e-01	5.684070e-01	-1.903455e+00	-1.729480e+00	-1.739745e-01
27            	-7.790089e-01	5.676039e-01	-1.904893e+00	-1.731455e+00	-1.734376e-01
28            	-7.800941e-01	5.668500e-01	-1.906056e+00	-1.733122e+00	-1.729337e-01
29            	-7.810902e-01	5.661857e-01	-1.907115e+00	-1.734647e+00	-1.724671e-01
30            	-7.820244e-01	5.656199e-01	-1.908131e+00	-1.736090e+00	-1.720411e-01
31            	-7.827222e-01	5.652926e-01	-1.908984e+00	-1.737214e+00	-1.717699e-01
32            	-7.835064e-01	5.650185e-01	-1.910004e+00	-1.738508e+00	-1.714956e-01
33            	-7.841817e-01	5.648376e-01	-1.910929e+00	-1.739646e+00	-1.712828e-01
34            	-7.846466e-01	5.647289e-01	-1.911583e+00	-1.740438e+00	-1.711447e-01
35            	-7.848561e-01	5.646711e-01	-1.911872e+00	-1.740792e+00	-1.710797e-01
36            	-7.848378e-01	5.646438e-01	-1.911824e+00	-1.740750e+00	-1.710744e-01
37            	-7.846251e-01	5.646341e-01	-1.911476e+00	-1.740363e+00	-1.711129e-01
38            	-7.843186e-01	5.646393e-01	-1.910988e+00	-1.739813e+00	-1.711754e-01
39            	-7.840104e-01	5.646552e-01	-1.910502e+00	-1.739261e+00	-1.712404e-01
40            	-7.837755e-01	5.646676e-01	-1.910125e+00	-1.738838e+00	-1.712871e-01
41            	-7.836489e-01	5.646786e-01	-1.909916e+00	-1.738607e+00	-1.713092e-01
42            	-7.836528e-01	5.646867e-01	-1.909912e+00	-1.738609e+00	-1.713034e-01
43            	-7.837729e-01	5.647302e-01	-1.910131e+00	-1.738838e+00	-1.712924e-01
44            	-7.838410e-01	5.648321e-01	-1.910304e+00	-1.738993e+00	-1.713109e-01
45            	-7.843405e-01	5.649102e-01	-1.911170e+00	-1.739926e+00	-1.712445e-01
46            	-7.845257e-01	5.650139e-01	-1.911537e+00	-1.740294e+00	-1.712427e-01
47            	-7.848435e-01	5.651194e-01	-1.912131e+00	-1.740909e+00	-1.712222e-01
48            	-7.852597e-01	5.652639e-01	-1.912933e+00	-1.741726e+00	-1.712066e-01
49            	-7.857024e-01	5.654278e-01	-1.913809e+00	-1.742607e+00	-1.712020e-01
50            	-7.861128e-01	5.656178e-01	-1.914671e+00	-1.743449e+00	-1.712229e-01
51            	-7.864651e-01	5.658148e-01	-1.915460e+00	-1.744195e+00	-1.712650e-01
52            	-7.867394e-01	5.660311e-01	-1.916154e+00	-1.744816e+00	-1.713376e-01
53            	-7.869227e-01	5.662558e-01	-1.916717e+00	-1.745281e+00	-1.714356e-01
54            	-7.870077e-01	5.664941e-01	-1.917142e+00	-1.745579e+00	-1.715635e-01
55            	-7.869958e-01	5.667302e-01	-1.917412e+00	-1.745702e+00	-1.717104e-01
56            	-7.869071e-01	5.669543e-01	-1.917548e+00	-1.745681e+00	-1.718670e-01
57            	-7.867699e-01	5.671575e-01	-1.917580e+00	-1.745560e+00	-1.720202e-01
58            	-7.866176e-01	5.673516e-01	-1.917572e+00	-1.745404e+00	-1.721687e-01
59            	-7.864832e-01	5.675200e-01	-1.917559e+00	-1.745263e+00	-1.722964e-01
60            	-7.863954e-01	5.676747e-01	-1.917598e+00	-1.745194e+00	-1.724035e-01
61            	-7.863781e-01	5.678012e-01	-1.917711e+00	-1.745234e+00	-1.724774e-01
62            	-7.864476e-01	5.679195e-01	-1.917947e+00	-1.745421e+00	-1.725258e-01
63            	-7.866124e-01	5.680237e-01	-1.918315e+00	-1.745770e+00	-1.725451e-01
64            	-7.868454e-01	5.681209e-01	-1.918781e+00	-1.746236e+00	-1.725450e-01
65            	-7.871335e-01	5.682034e-01	-1.919316e+00	-1.746791e+00	-1.725244e-01
66            	-7.874580e-01	5.682845e-01	-1.919908e+00	-1.747412e+00	-1.724958e-01
67            	-7.877852e-01	5.683482e-01	-1.920486e+00	-1.748028e+00	-1.724578e-01
68            	-7.880965e-01	5.684138e-01	-1.921042e+00	-1.748617e+00	-1.724243e-01
69            	-7.883723e-01	5.684681e-01	-1.921530e+00	-1.749137e+00	-1.723925e-01
70            	-7.885956e-01	5.685274e-01	-1.921937e+00	-1.749564e+00	-1.723731e-01
71            	-7.887564e-01	5.685787e-01	-1.922236e+00	-1.749875e+00	-1.723617e-01
72            	-7.888498e-01	5.686339e-01	-1.922431e+00	-1.750065e+00	-1.723659e-01
73            	-7.888749e-01	5.686858e-01	-1.922515e+00	-1.750133e+00	-1.723828e-01
74            	-7.888459e-01	5.687462e-01	-1.922524e+00	-1.750108e+00	-1.724160e-01
75            	-7.887750e-01	5.687939e-01	-1.922456e+00	-1.750003e+00	-1.724529e-01
76            	-7.886674e-01	5.688434e-01	-1.922333e+00	-1.749834e+00	-1.724990e-01
77            	-7.885353e-01	5.688848e-01	-1.922165e+00	-1.749618e+00	-1.725470e-01
78            	-7.883879e-01	5.689296e-01	-1.921978e+00	-1.749377e+00	-1.726010e-01
79            	-7.882344e-01	5.689650e-01	-1.921774e+00	-1.749121e+00	-1.726526e-01
80            	-7.880826e-01	5.690027e-01	-1.921577e+00	-1.748871e+00	-1.727059e-01
81            	-7.879397e-01	5.690303e-01	-1.921385e+00	-1.748632e+00	-1.727530e-01
82            	-7.878096e-01	5.690559e-01	-1.921212e+00	-1.748416e+00	-1.727965e-01
83            	-7.876955e-01	5.690688e-01	-1.921051e+00	-1.748221e+00	-1.728301e-01
84            	-7.876000e-01	5.690779e-01	-1.920915e+00	-1.748057e+00	-1.728575e-01
85            	-7.875228e-01	5.690717e-01	-1.920791e+00	-1.747918e+00	-1.728725e-01
86            	-7.874599e-01	5.690649e-01	-1.920685e+00	-1.747803e+00	-1.728828e-01
87            	-7.874142e-01	5.690415e-01	-1.920589e+00	-1.747709e+00	-1.728801e-01
88            	-7.873821e-01	5.690221e-01	-1.920514e+00	-1.747639e+00	-1.728751e-01
89            	-7.873576e-01	5.689952e-01	-1.920443e+00	-1.747579e+00	-1.728638e-01
90            	-7.873379e-01	5.689660e-01	-1.920374e+00	-1.747525e+00	-1.728492e-01
91            	-7.873223e-01	5.689302e-01	-1.920304e+00	-1.747474e+00	-1.728296e-01
92            	-7.873103e-01	5.688947e-01	-1.920238e+00	-1.747429e+00	-1.728087e-01
93            	-7.873063e-01	5.689000e-01	-1.920235e+00	-1.747424e+00	-1.728111e-01
94            	-7.872968e-01	5.688277e-01	-1.920138e+00	-1.747366e+00	-1.727722e-01
95            	-7.872925e-01	5.687753e-01	-1.920067e+00	-1.747326e+00	-1.727411e-01
96            	-7.872899e-01	5.687774e-01	-1.920065e+00	-1.747322e+00	-1.727427e-01
97            	-7.872824e-01	5.687314e-01	-1.919985e+00	-1.747275e+00	-1.727101e-01
98            	-7.872782e-01	5.686906e-01	-1.919922e+00	-1.747239e+00	-1.726829e-01
99            	-7.872760e-01	5.686912e-01	-1.919920e+00	-1.747236e+00	-1.726839e-01
100           	-7.872676e-01	5.686578e-01	-1.919850e+00	-1.747193e+00	-1.726575e-01
101           	-7.872652e-01	5.686574e-01	-1.919846e+00	-1.747188e+00	-1.726579e-01
102           	-7.872575e-01	5.686528e-01	-1.919812e+00	-1.747163e+00	-1.726484e-01
103           	-7.872545e-01	5.686545e-01	-1.919809e+00	-1.747159e+00	-1.726499e-01
104           	-7.872587e-01	5.686523e-01	-1.919799e+00	-1.747158e+00	-1.726408e-01
105           	-7.872568e-01	5.686522e-01	-1.919796e+00	-1.747155e+00	-1.726415e-01
106           	-7.872702e-01	5.686846e-01	-1.919843e+00	-1.747192e+00	-1.726515e-01
107           	-7.872691e-01	5.686842e-01	-1.919843e+00	-1.747190e+00	-1.726521e-01
108           	-7.872981e-01	5.687143e-01	-1.919917e+00	-1.747257e+00	-1.726603e-01
109           	-7.872977e-01	5.687112e-01	-1.919915e+00	-1.747255e+00	-1.726596e-01
110           	-7.873384e-01	5.687753e-01	-1.920046e+00	-1.747361e+00	-1.726846e-01
111           	-7.873376e-01	5.687761e-01	-1.920047e+00	-1.747361e+00	-1.726857e-01
112           	-7.873936e-01	5.688391e-01	-1.920203e+00	-1.747495e+00	-1.727079e-01
113           	-7.873943e-01	5.688362e-01	-1.920203e+00	-1.747496e+00	-1.727073e-01
114           	-7.874591e-01	5.689210e-01	-1.920398e+00	-1.747658e+00	-1.727398e-01
115           	-7.874587e-01	5.689224e-01	-1.920399e+00	-1.747658e+00	-1.727408e-01
116           	-7.875383e-01	5.689846e-01	-1.920597e+00	-1.747837e+00	-1.727602e-01
117           	-7.875388e-01	5.689827e-01	-1.920597e+00	-1.747837e+00	-1.727597e-01
118           	-7.876130e-01	5.690547e-01	-1.920794e+00	-1.748010e+00	-1.727839e-01
119           	-7.876136e-01	5.690560e-01	-1.920797e+00	-1.748012e+00	-1.727846e-01
120           	-7.876861e-01	5.690995e-01	-1.920962e+00	-1.748167e+00	-1.727947e-01
121           	-7.876860e-01	5.690980e-01	-1.920960e+00	-1.748166e+00	-1.727942e-01
122           	-7.877565e-01	5.691483e-01	-1.921132e+00	-1.748323e+00	-1.728097e-01
123           	-7.877577e-01	5.691497e-01	-1.921136e+00	-1.748326e+00	-1.728103e-01
124           	-7.878242e-01	5.691697e-01	-1.921264e+00	-1.748456e+00	-1.728079e-01
125           	-7.878252e-01	5.691682e-01	-1.921265e+00	-1.748458e+00	-1.728073e-01
126           	-7.878825e-01	5.691981e-01	-1.921393e+00	-1.748579e+00	-1.728139e-01
127           	-7.878841e-01	5.692002e-01	-1.921398e+00	-1.748583e+00	-1.728148e-01
128           	-7.879369e-01	5.692035e-01	-1.921482e+00	-1.748678e+00	-1.728041e-01
129           	-7.879381e-01	5.692020e-01	-1.921483e+00	-1.748680e+00	-1.728033e-01
130           	-7.879919e-01	5.691924e-01	-1.921566e+00	-1.748775e+00	-1.727912e-01
131           	-7.879941e-01	5.691898e-01	-1.921567e+00	-1.748778e+00	-1.727895e-01
132           	-7.880462e-01	5.691770e-01	-1.921634e+00	-1.748863e+00	-1.727708e-01
133           	-7.880469e-01	5.691769e-01	-1.921634e+00	-1.748864e+00	-1.727702e-01
134           	-7.880916e-01	5.691785e-01	-1.921703e+00	-1.748943e+00	-1.727597e-01
135           	-7.880927e-01	5.691779e-01	-1.921704e+00	-1.748945e+00	-1.727591e-01
136           	-7.880974e-01	5.691664e-01	-1.921705e+00	-1.748950e+00	-1.727549e-01
137           	-7.881286e-01	5.691519e-01	-1.921714e+00	-1.748986e+00	-1.727285e-01
138           	-7.881287e-01	5.691562e-01	-1.921715e+00	-1.748986e+00	-1.727288e-01
139           	-7.881477e-01	5.691375e-01	-1.921714e+00	-1.749005e+00	-1.727095e-01
140           	-7.881507e-01	5.691338e-01	-1.921716e+00	-1.749009e+00	-1.727074e-01
141           	-7.881672e-01	5.691094e-01	-1.921708e+00	-1.749021e+00	-1.726868e-01
142           	-7.881692e-01	5.691065e-01	-1.921709e+00	-1.749024e+00	-1.726852e-01
143           	-7.881877e-01	5.690944e-01	-1.921718e+00	-1.749047e+00	-1.726714e-01
144           	-7.881908e-01	5.690919e-01	-1.921721e+00	-1.749051e+00	-1.726698e-01
145           	-7.881980e-01	5.690870e-01	-1.921712e+00	-1.749054e+00	-1.726582e-01
146           	-7.882012e-01	5.690868e-01	-1.921716e+00	-1.749059e+00	-1.726570e-01
147           	-7.882095e-01	5.690796e-01	-1.921711e+00	-1.749065e+00	-1.726462e-01
148           	-7.882133e-01	5.690774e-01	-1.921716e+00	-1.749071e+00	-1.726445e-01
149           	-7.882111e-01	5.690660e-01	-1.921687e+00	-1.749055e+00	-1.726322e-01
150           	-7.882136e-01	5.690683e-01	-1.921691e+00	-1.749059e+00	-1.726319e-01
151           	-7.881972e-01	5.690604e-01	-1.921645e+00	-1.749020e+00	-1.726255e-01
152           	-7.882009e-01	5.690603e-01	-1.921651e+00	-1.749026e+00	-1.726247e-01
153           	-7.881780e-01	5.690364e-01	-1.921576e+00	-1.748966e+00	-1.726103e-01
154           	-7.881811e-01	5.690388e-01	-1.921582e+00	-1.748972e+00	-1.726100e-01
155           	-7.881541e-01	5.690344e-01	-1.921522e+00	-1.748915e+00	-1.726069e-01
156           	-7.881575e-01	5.690355e-01	-1.921527e+00	-1.748921e+00	-1.726062e-01
157           	-7.881187e-01	5.690141e-01	-1.921429e+00	-1.748833e+00	-1.725956e-01
158           	-7.881210e-01	5.690183e-01	-1.921434e+00	-1.748838e+00	-1.725958e-01
159           	-7.880782e-01	5.690036e-01	-1.921342e+00	-1.748749e+00	-1.725926e-01
160           	-7.880804e-01	5.690092e-01	-1.921349e+00	-1.748755e+00	-1.725939e-01
161           	-7.880422e-01	5.689754e-01	-1.921241e+00	-1.748663e+00	-1.725782e-01
162           	-7.880430e-01	5.689817e-01	-1.921245e+00	-1.748665e+00	-1.725793e-01
163           	-7.879760e-01	5.689771e-01	-1.921117e+00	-1.748535e+00	-1.725827e-01
164           	-7.879777e-01	5.689805e-01	-1.921122e+00	-1.748539e+00	-1.725832e-01
165           	-7.879061e-01	5.689114e-01	-1.920930e+00	-1.748371e+00	-1.725587e-01
166           	-7.879054e-01	5.689179e-01	-1.920931e+00	-1.748371e+00	-1.725601e-01
167           	-7.878385e-01	5.688769e-01	-1.920776e+00	-1.748227e+00	-1.725498e-01
168           	-7.878354e-01	5.688889e-01	-1.920779e+00	-1.748225e+00	-1.725540e-01
169           	-7.877582e-01	5.688283e-01	-1.920585e+00	-1.748051e+00	-1.725343e-01
170           	-7.877525e-01	5.688427e-01	-1.920584e+00	-1.748044e+00	-1.725394e-01
171           	-7.876523e-01	5.687682e-01	-1.920353e+00	-1.747829e+00	-1.725243e-01
172           	-7.876478e-01	5.687751e-01	-1.920350e+00	-1.747823e+00	-1.725273e-01
173           	-7.875363e-01	5.686707e-01	-1.920081e+00	-1.747577e+00	-1.725040e-01
174           	-7.875306e-01	5.686776e-01	-1.920076e+00	-1.747568e+00	-1.725072e-01
175           	-7.873825e-01	5.685814e-01	-1.919755e+00	-1.747260e+00	-1.724950e-01
176           	-7.872438e-01	5.685244e-01	-1.919467e+00	-1.746977e+00	-1.724897e-01
177           	-7.872395e-01	5.685335e-01	-1.919466e+00	-1.746973e+00	-1.724934e-01
178           	-7.870732e-01	5.683713e-01	-1.919065e+00	-1.746606e+00	-1.724594e-01
179           	-7.870698e-01	5.683665e-01	-1.919057e+00	-1.746598e+00	-1.724586e-01
180           	-7.868933e-01	5.682146e-01	-1.918645e+00	-1.746216e+00	-1.724294e-01
181           	-7.867197e-01	5.681774e-01	-1.918313e+00	-1.745876e+00	-1.724368e-01
182           	-7.865871e-01	5.681491e-01	-1.918062e+00	-1.745618e+00	-1.724440e-01
183           	-7.864880e-01	5.680911e-01	-1.917852e+00	-1.745414e+00	-1.724380e-01
184           	-7.864857e-01	5.680843e-01	-1.917844e+00	-1.745408e+00	-1.724364e-01
185           	-7.864138e-01	5.679097e-01	-1.917578e+00	-1.745203e+00	-1.723754e-01
186           	-7.863305e-01	5.678461e-01	-1.917380e+00	-1.745021e+00	-1.723597e-01
187           	-7.863295e-01	5.678375e-01	-1.917375e+00	-1.745017e+00	-1.723579e-01
188           	-7.862835e-01	5.677526e-01	-1.917224e+00	-1.744895e+00	-1.723284e-01
189           	-7.862398e-01	5.677132e-01	-1.917116e+00	-1.744798e+00	-1.723182e-01
190           	-7.862403e-01	5.677024e-01	-1.917112e+00	-1.744796e+00	-1.723155e-01
191           	-7.862403e-01	5.676696e-01	-1.917066e+00	-1.744774e+00	-1.722929e-01
192           	-7.862401e-01	5.676553e-01	-1.917055e+00	-1.744768e+00	-1.722875e-01
193           	-7.862468e-01	5.677295e-01	-1.917127e+00	-1.744810e+00	-1.723169e-01
194           	-7.862498e-01	5.677817e-01	-1.917168e+00	-1.744834e+00	-1.723344e-01
195           	-7.862506e-01	5.677717e-01	-1.917164e+00	-1.744833e+00	-1.723317e-01
196           	-7.863146e-01	5.677976e-01	-1.917277e+00	-1.744953e+00	-1.723238e-01
197           	-7.863164e-01	5.677842e-01	-1.917272e+00	-1.744952e+00	-1.723194e-01
198           	-7.863621e-01	5.678515e-01	-1.917402e+00	-1.745063e+00	-1.723390e-01
199           	-7.864053e-01	5.679064e-01	-1.917524e+00	-1.745167e+00	-1.723567e-01
200           	-7.864465e-01	5.679384e-01	-1.917620e+00	-1.745257e+00	-1.723637e-01
201           	-7.864982e-01	5.679482e-01	-1.917720e+00	-1.745358e+00	-1.723619e-01
202           	-7.865013e-01	5.679345e-01	-1.917717e+00	-1.745360e+00	-1.723575e-01
203           	-7.865536e-01	5.679725e-01	-1.917826e+00	-1.745466e+00	-1.723592e-01
204           	-7.865812e-01	5.680199e-01	-1.917916e+00	-1.745539e+00	-1.723767e-01
205           	-7.865853e-01	5.680070e-01	-1.917915e+00	-1.745543e+00	-1.723724e-01
206           	-7.866383e-01	5.680274e-01	-1.918023e+00	-1.745650e+00	-1.723730e-01
207           	-7.866867e-01	5.680579e-01	-1.918142e+00	-1.745758e+00	-1.723842e-01
208           	-7.866903e-01	5.680459e-01	-1.918141e+00	-1.745761e+00	-1.723803e-01
209           	-7.867409e-01	5.680931e-01	-1.918273e+00	-1.745877e+00	-1.723956e-01
210           	-7.867440e-01	5.680797e-01	-1.918268e+00	-1.745878e+00	-1.723899e-01
211           	-7.867929e-01	5.681973e-01	-1.918478e+00	-1.746032e+00	-1.724459e-01
212           	-7.868522e-01	5.682718e-01	-1.918672e+00	-1.746188e+00	-1.724836e-01
213           	-7.868578e-01	5.682593e-01	-1.918673e+00	-1.746195e+00	-1.724789e-01
214           	-7.869567e-01	5.683211e-01	-1.918918e+00	-1.746416e+00	-1.725023e-01
215           	-7.869581e-01	5.683154e-01	-1.918916e+00	-1.746416e+00	-1.725000e-01
216           	-7.870397e-01	5.684086e-01	-1.919169e+00	-1.746624e+00	-1.725449e-01
217           	-7.870433e-01	5.683986e-01	-1.919169e+00	-1.746628e+00	-1.725412e-01
218           	-7.871534e-01	5.684168e-01	-1.919398e+00	-1.746852e+00	-1.725455e-01
219           	-7.871542e-01	5.684133e-01	-1.919394e+00	-1.746851e+00	-1.725429e-01
220           	-7.872203e-01	5.685249e-01	-1.919635e+00	-1.747038e+00	-1.725974e-01
221           	-7.872671e-01	5.685448e-01	-1.919759e+00	-1.747147e+00	-1.726125e-01
222           	-7.872708e-01	5.685372e-01	-1.919761e+00	-1.747151e+00	-1.726096e-01
223           	-7.873390e-01	5.685170e-01	-1.919869e+00	-1.747273e+00	-1.725954e-01
224           	-7.873319e-01	5.685616e-01	-1.919886e+00	-1.747275e+00	-1.726114e-01
225           	-7.873275e-01	5.685765e-01	-1.919888e+00	-1.747272e+00	-1.726168e-01
226           	-7.873087e-01	5.685236e-01	-1.919811e+00	-1.747214e+00	-1.725968e-01
227           	-7.872623e-01	5.684635e-01	-1.919676e+00	-1.747101e+00	-1.725759e-01
228           	-7.872625e-01	5.684673e-01	-1.919679e+00	-1.747102e+00	-1.725770e-01
229           	-7.872279e-01	5.683572e-01	-1.919510e+00	-1.746983e+00	-1.725270e-01
230           	-7.871369e-01	5.683265e-01	-1.919296e+00	-1.746785e+00	-1.725108e-01
231           	-7.871326e-01	5.683472e-01	-1.919301e+00	-1.746783e+00	-1.725180e-01
232           	-7.870408e-01	5.682347e-01	-1.919018e+00	-1.746550e+00	-1.724683e-01
233           	-7.870366e-01	5.682434e-01	-1.919014e+00	-1.746544e+00	-1.724704e-01
234           	-7.869243e-01	5.681533e-01	-1.918732e+00	-1.746290e+00	-1.724415e-01
235           	-7.868055e-01	5.680689e-01	-1.918429e+00	-1.746020e+00	-1.724091e-01
236           	-7.868061e-01	5.680807e-01	-1.918437e+00	-1.746025e+00	-1.724126e-01
237           	-7.866840e-01	5.679314e-01	-1.918062e+00	-1.745715e+00	-1.723469e-01
238           	-7.866810e-01	5.679391e-01	-1.918062e+00	-1.745712e+00	-1.723499e-01
239           	-7.865637e-01	5.678314e-01	-1.917730e+00	-1.745429e+00	-1.723013e-01
240           	-7.865610e-01	5.678403e-01	-1.917731e+00	-1.745427e+00	-1.723045e-01
241           	-7.864490e-01	5.676696e-01	-1.917338e+00	-1.745118e+00	-1.722201e-01
242           	-7.864490e-01	5.676711e-01	-1.917336e+00	-1.745117e+00	-1.722192e-01
243           	-7.863416e-01	5.676078e-01	-1.917062e+00	-1.744873e+00	-1.721896e-01
244           	-7.863406e-01	5.676187e-01	-1.917069e+00	-1.744875e+00	-1.721937e-01
245           	-7.862680e-01	5.674911e-01	-1.916783e+00	-1.744659e+00	-1.721234e-01
246           	-7.862684e-01	5.674917e-01	-1.916783e+00	-1.744660e+00	-1.721232e-01
247           	-7.862001e-01	5.674660e-01	-1.916619e+00	-1.744510e+00	-1.721094e-01
248           	-7.861794e-01	5.674507e-01	-1.916540e+00	-1.744449e+00	-1.720907e-01
249           	-7.861785e-01	5.674610e-01	-1.916546e+00	-1.744452e+00	-1.720946e-01
250           	-7.861708e-01	5.673618e-01	-1.916420e+00	-1.744381e+00	-1.720392e-01
251           	-7.861705e-01	5.673643e-01	-1.916421e+00	-1.744381e+00	-1.720401e-01
252           	-7.861768e-01	5.673414e-01	-1.916394e+00	-1.744374e+00	-1.720201e-01
253           	-7.861764e-01	5.673462e-01	-1.916397e+00	-1.744375e+00	-1.720220e-01
254           	-7.862088e-01	5.672299e-01	-1.916320e+00	-1.744369e+00	-1.719513e-01
255           	-7.862079e-01	5.672279e-01	-1.916314e+00	-1.744365e+00	-1.719493e-01
256           	-7.862250e-01	5.672642e-01	-1.916365e+00	-1.744408e+00	-1.719576e-01
257           	-7.862255e-01	5.672692e-01	-1.916372e+00	-1.744411e+00	-1.719603e-01
258           	-7.862955e-01	5.672080e-01	-1.916417e+00	-1.744504e+00	-1.719132e-01
259           	-7.862969e-01	5.672048e-01	-1.916418e+00	-1.744506e+00	-1.719120e-01
260           	-7.863594e-01	5.672629e-01	-1.916572e+00	-1.744645e+00	-1.719265e-01
261           	-7.863595e-01	5.672673e-01	-1.916578e+00	-1.744648e+00	-1.719293e-01
262           	-7.864597e-01	5.672388e-01	-1.916700e+00	-1.744809e+00	-1.718901e-01
263           	-7.864587e-01	5.672366e-01	-1.916696e+00	-1.744807e+00	-1.718893e-01
264           	-7.865461e-01	5.673653e-01	-1.916959e+00	-1.745026e+00	-1.719333e-01
265           	-7.865462e-01	5.673697e-01	-1.916966e+00	-1.745029e+00	-1.719366e-01
266           	-7.866800e-01	5.673647e-01	-1.917168e+00	-1.745264e+00	-1.719041e-01
267           	-7.866805e-01	5.673615e-01	-1.917167e+00	-1.745264e+00	-1.719030e-01
268           	-7.867932e-01	5.674871e-01	-1.917469e+00	-1.745528e+00	-1.719415e-01
269           	-7.867928e-01	5.674919e-01	-1.917475e+00	-1.745530e+00	-1.719445e-01
270           	-7.869282e-01	5.674794e-01	-1.917670e+00	-1.745763e+00	-1.719066e-01
271           	-7.869268e-01	5.674787e-01	-1.917666e+00	-1.745760e+00	-1.719060e-01
272           	-7.870252e-01	5.676157e-01	-1.917954e+00	-1.746002e+00	-1.719520e-01
273           	-7.870248e-01	5.676216e-01	-1.917961e+00	-1.746005e+00	-1.719556e-01
274           	-7.871428e-01	5.676095e-01	-1.918134e+00	-1.746210e+00	-1.719241e-01
275           	-7.871430e-01	5.676076e-01	-1.918133e+00	-1.746209e+00	-1.719234e-01
276           	-7.872311e-01	5.677027e-01	-1.918367e+00	-1.746415e+00	-1.719523e-01
277           	-7.872301e-01	5.677114e-01	-1.918373e+00	-1.746417e+00	-1.719564e-01
278           	-7.873296e-01	5.676773e-01	-1.918495e+00	-1.746577e+00	-1.719179e-01
279           	-7.873283e-01	5.676758e-01	-1.918491e+00	-1.746574e+00	-1.719171e-01
280           	-7.873919e-01	5.677751e-01	-1.918696e+00	-1.746740e+00	-1.719561e-01
281           	-7.873912e-01	5.677840e-01	-1.918703e+00	-1.746743e+00	-1.719604e-01
282           	-7.874716e-01	5.677409e-01	-1.918797e+00	-1.746870e+00	-1.719268e-01
283           	-7.874711e-01	5.677405e-01	-1.918795e+00	-1.746869e+00	-1.719265e-01
284           	-7.875250e-01	5.677885e-01	-1.918943e+00	-1.746996e+00	-1.719464e-01
285           	-7.875243e-01	5.677955e-01	-1.918948e+00	-1.746998e+00	-1.719497e-01
286           	-7.875928e-01	5.677137e-01	-1.918986e+00	-1.747086e+00	-1.719003e-01
287           	-7.875923e-01	5.677105e-01	-1.918981e+00	-1.747083e+00	-1.718984e-01
288           	-7.876267e-01	5.677526e-01	-1.919091e+00	-1.747172e+00	-1.719186e-01
289           	-7.876249e-01	5.677613e-01	-1.919095e+00	-1.747172e+00	-1.719228e-01
290           	-7.876836e-01	5.676494e-01	-1.919097e+00	-1.747232e+00	-1.718648e-01
291           	-7.876826e-01	5.676480e-01	-1.919093e+00	-1.747229e+00	-1.718638e-01
292           	-7.877094e-01	5.676470e-01	-1.919151e+00	-1.747285e+00	-1.718663e-01
293           	-7.877090e-01	5.676511e-01	-1.919155e+00	-1.747287e+00	-1.718686e-01
294           	-7.877439e-01	5.675029e-01	-1.919070e+00	-1.747279e+00	-1.717912e-01
295           	-7.877417e-01	5.675022e-01	-1.919064e+00	-1.747274e+00	-1.717903e-01
296           	-7.877443e-01	5.674939e-01	-1.919070e+00	-1.747279e+00	-1.717905e-01
297           	-7.877417e-01	5.675011e-01	-1.919072e+00	-1.747278e+00	-1.717942e-01
298           	-7.877510e-01	5.673502e-01	-1.918940e+00	-1.747221e+00	-1.717190e-01
299           	-7.877520e-01	5.673425e-01	-1.918936e+00	-1.747220e+00	-1.717160e-01
300           	-7.877280e-01	5.673086e-01	-1.918874e+00	-1.747165e+00	-1.717091e-01
301           	-7.877296e-01	5.673063e-01	-1.918877e+00	-1.747168e+00	-1.717091e-01
302           	-7.877079e-01	5.671562e-01	-1.918694e+00	-1.747055e+00	-1.716391e-01
303           	-7.877079e-01	5.671457e-01	-1.918686e+00	-1.747051e+00	-1.716353e-01
304           	-7.876584e-01	5.671184e-01	-1.918585e+00	-1.746951e+00	-1.716339e-01
305           	-7.876600e-01	5.671131e-01	-1.918586e+00	-1.746953e+00	-1.716332e-01
306           	-7.876160e-01	5.669981e-01	-1.918397e+00	-1.746814e+00	-1.715825e-01
307           	-7.876164e-01	5.669867e-01	-1.918390e+00	-1.746811e+00	-1.715784e-01
308           	-7.875538e-01	5.669634e-01	-1.918266e+00	-1.746687e+00	-1.715790e-01
309           	-7.875544e-01	5.669550e-01	-1.918261e+00	-1.746685e+00	-1.715764e-01
310           	-7.874995e-01	5.668636e-01	-1.918081e+00	-1.746540e+00	-1.715409e-01
311           	-7.874990e-01	5.668520e-01	-1.918071e+00	-1.746535e+00	-1.715367e-01
312           	-7.874416e-01	5.668520e-01	-1.917975e+00	-1.746429e+00	-1.715460e-01
313           	-7.874426e-01	5.668411e-01	-1.917971e+00	-1.746428e+00	-1.715429e-01
314           	-7.874031e-01	5.668249e-01	-1.917888e+00	-1.746347e+00	-1.715411e-01
315           	-7.874019e-01	5.668192e-01	-1.917883e+00	-1.746343e+00	-1.715394e-01
316           	-7.873987e-01	5.668268e-01	-1.917882e+00	-1.746340e+00	-1.715424e-01
317           	-7.873563e-01	5.667656e-01	-1.917754e+00	-1.746233e+00	-1.715205e-01
318           	-7.873521e-01	5.667692e-01	-1.917748e+00	-1.746226e+00	-1.715217e-01
319           	-7.873063e-01	5.667997e-01	-1.917705e+00	-1.746159e+00	-1.715462e-01
320           	-7.873009e-01	5.668049e-01	-1.917698e+00	-1.746150e+00	-1.715483e-01
321           	-7.873019e-01	5.668078e-01	-1.917702e+00	-1.746153e+00	-1.715492e-01
322           	-7.872727e-01	5.667871e-01	-1.917642e+00	-1.746094e+00	-1.715484e-01
323           	-7.872723e-01	5.667870e-01	-1.917642e+00	-1.746093e+00	-1.715487e-01
324           	-7.872743e-01	5.667806e-01	-1.917643e+00	-1.746096e+00	-1.715473e-01
325           	-7.872518e-01	5.667881e-01	-1.917605e+00	-1.746054e+00	-1.715505e-01
326           	-7.872441e-01	5.668012e-01	-1.917598e+00	-1.746043e+00	-1.715549e-01
327           	-7.872475e-01	5.667915e-01	-1.917598e+00	-1.746047e+00	-1.715517e-01
328           	-7.871909e-01	5.667739e-01	-1.917486e+00	-1.745934e+00	-1.715521e-01
329           	-7.871879e-01	5.667790e-01	-1.917484e+00	-1.745930e+00	-1.715540e-01
330           	-7.871870e-01	5.668440e-01	-1.917536e+00	-1.745955e+00	-1.715813e-01
331           	-7.871819e-01	5.668510e-01	-1.917532e+00	-1.745948e+00	-1.715838e-01
332           	-7.871859e-01	5.668412e-01	-1.917533e+00	-1.745952e+00	-1.715805e-01
333           	-7.871578e-01	5.668589e-01	-1.917498e+00	-1.745907e+00	-1.715909e-01
334           	-7.871558e-01	5.668562e-01	-1.917491e+00	-1.745901e+00	-1.715899e-01
335           	-7.871393e-01	5.668686e-01	-1.917487e+00	-1.745883e+00	-1.716044e-01
336           	-7.871432e-01	5.669249e-01	-1.917543e+00	-1.745915e+00	-1.716282e-01
337           	-7.871488e-01	5.669591e-01	-1.917594e+00	-1.745946e+00	-1.716480e-01
338           	-7.871503e-01	5.669562e-01	-1.917594e+00	-1.745947e+00	-1.716466e-01
339           	-7.871622e-01	5.669350e-01	-1.917609e+00	-1.745967e+00	-1.716423e-01
340           	-7.871623e-01	5.669235e-01	-1.917600e+00	-1.745962e+00	-1.716375e-01
341           	-7.871807e-01	5.670023e-01	-1.917714e+00	-1.746038e+00	-1.716761e-01
342           	-7.871810e-01	5.669965e-01	-1.917711e+00	-1.746037e+00	-1.716745e-01
343           	-7.872151e-01	5.670436e-01	-1.917815e+00	-1.746122e+00	-1.716924e-01
344           	-7.872167e-01	5.670308e-01	-1.917808e+00	-1.746121e+00	-1.716874e-01
345           	-7.872360e-01	5.671284e-01	-1.917947e+00	-1.746210e+00	-1.717377e-01
346           	-7.872378e-01	5.671202e-01	-1.917945e+00	-1.746210e+00	-1.717346e-01
347           	-7.872661e-01	5.671766e-01	-1.918059e+00	-1.746296e+00	-1.717635e-01
348           	-7.872697e-01	5.671659e-01	-1.918057e+00	-1.746298e+00	-1.717589e-01
349           	-7.872931e-01	5.672797e-01	-1.918217e+00	-1.746401e+00	-1.718153e-01
350           	-7.872959e-01	5.672702e-01	-1.918215e+00	-1.746404e+00	-1.718118e-01
351           	-7.873185e-01	5.673535e-01	-1.918345e+00	-1.746491e+00	-1.718540e-01