# vtk DataFile Version 2.0
sampleSurface
ASCII
DATASET POLYDATA
POINTS 9400 float
2.60369e-12 7.88861e-31 0 2.60369e-12 7.88861e-31 0.01875 -0.0625 0 0 0.0625 0
0 -0.0625 2.04574e-18 0.01875 0.0625 2.27264e-18 0.01875 2.45838e-12 -7.88861e-31 0.0805546
0.0625 0 0.080548 -0.0625 0 0.0805619 -0.125 0 0 0.125
0 0 -0.125 0 0.01875 0.125 0 0.01875 2.44092e-12 0
0.142361 0.125 -2.36236e-18 0.080537 -0.125 -1.99734e-18 0.0805727 0.155198 9.86076e-32 0
0.0625 2.25713e-18 0.142348 -0.0625 6.58074e-19 0.142376 0.155198 9.86076e-32 0.01875 -0.1875
0 0 0.1875 -1.97215e-31 0 0.17003 9.86076e-32 0.0805311 -0.1875 6.18262e-19
0.01875 0.1875 1.13376e-18 0.01875 0.125 0 0.142327 -0.125 -1.57772e-30 0.142397
0.1875 0 0.0805288 -0.1875 1.57772e-30 0.0805786 2.55289e-12 4.58002e-19 0.20417 0.0625
0 0.204149 -0.0625 0 0.204193 0.182675 -2.46519e-32 0.142311 0.1875 -2.46519e-32
0.14231 -0.1875 3.44655e-18 0.142409 0.125 1.8947e-18 0.20412 -0.125 8.62579e-19 0.204222
-0.25 0 0 0.25 0 0 -0.25 0 0.01875 0.25
0 0.01875 0.1875 0 0.171657 0.25 -1.85988e-18 0.0805215 -0.25 -7.89071e-19
0.0805852 2.80171e-12 0 0.265981 0.0625 -3.12196e-18 0.265952 -0.0625 0 0.266014
0.1875 0 0.204094 -0.1875 1.57772e-30 0.204241 0.192183 0 0.204092 0.25
0 0.142295 -0.25 0 0.142423 0.125 3.9443e-31 0.265926 -0.125 0
0.266049 -0.3125 1.57772e-30 0 0.3125 7.88861e-31 0 -0.3125 -2.90674e-18 0.01875
0.3125 -1.27488e-19 0.01875 0.3125 0 0.0805151 0.25 0 0.20407 -0.3125
0 0.0805924 -0.25 0 0.204262 0.1875 0 0.26588 -0.1875 5.62479e-19
0.266075 3.20058e-12 0 0.327795 0.199338 -9.86076e-32 0.265874 0.0625 0 0.327757
-0.0625 0 0.327848 0.3125 -2.71896e-18 0.142282 -0.3125 2.78209e-18 0.142437 0.125
6.9163e-19 0.327724 -0.125 2.08789e-18 0.327878 0.25 0 0.265848 -0.25 0
0.266105 0.3125 0 0.204049 -0.3125 0 0.204285 -0.375 0 0
0.375 0 0 -0.375 0 0.01875 0.375 0 0.01875 0.1875
0 0.32767 -0.1875 0 0.327912 0.375 -8.46552e-19 0.0805098 -0.375 -8.58061e-19
0.0806002 0.205871 0 0.327658 3.76968e-12 0 0.389612 0.0625 3.97291e-19 0.389565
-0.0625 2.2957e-18 0.389672 0.375 0 0.14227 -0.375 0 0.142454 0.125
0 0.389523 -0.125 0 0.389709 0.3125 0 0.265819 -0.3125 0
0.266137 0.25 -1.46378e-18 0.327628 -0.25 3.03983e-18 0.32795 0.375 0 0.204032
-0.375 2.41679e-18 0.20431 0.1875 -1.87127e-18 0.389464 -0.1875 3.73964e-19 0.389752 -0.4375
0 0 0.4375 0 0 -0.4375 1.89554e-18 0.01875 0.4375 -2.57557e-18
0.01875 0.213183 0 0.389442 0.4375 1.57772e-30 0.0805056 -0.4375 0 0.0806086
4.53883e-12 -3.03619e-18 0.451433 0.3125 0 0.32759 -0.3125 0 0.327991 0.0625
0 0.451375 -0.0625 1.57772e-30 0.451497 0.375 0 0.265795 -0.375 -1.57772e-30
0.266171 0.4375 3.41059e-18 0.142262 -0.4375 -9.03976e-19 0.142471 0.25 0 0.389411
-0.25 0 0.389799 0.125 -2.36403e-18 0.451324 -0.125 -5.90775e-19 0.451542 0.4375
0 0.204018 -0.4375 0 0.204337 0.1875 0 0.451262 -0.1875 0
0.451594 0.375 1.63705e-18 0.327558 -0.375 3.27259e-18 0.328036 0.3125 0 0.389363
-0.3125 -1.14983e-18 0.38985 -0.5 0 0 0.5 1.57772e-30 0 -0.5
0 0.01875 0.5 1.57772e-30 0.01875 0.222412 0 0.451226 0.5 2.84117e-18
0.0805025 -0.5 2.92717e-18 0.0806173 0.4375 -2.12621e-18 0.265775 -0.4375 -1.47432e-18 0.266207
5.55162e-12 1.57772e-30 0.513258 0.25 0 0.451197 -0.25 0 0.451651 0.0625
0 0.513189 -0.0625 4.3536e-19 0.513324 0.5 1.57772e-30 0.142255 -0.5 0
0.142489 0.125 0 0.513128 -0.125 0 0.513378 0.5 -1.57772e-30 0.204008
-0.5 3.15544e-30 0.204364 0.375 1.57772e-30 0.389324 -0.375 0 0.389905 0.1875
0 0.513077 0.4375 0 0.327533 -0.1875 0 0.51344 -0.4375 0
0.328082 0.3125 0 0.451139 -0.3125 3.15544e-30 0.451713 -0.5625 6.31089e-30 0
0.5625 3.15544e-30 0 -0.5625 -1.00175e-18 0.01875 0.5625 -2.39654e-18 0.01875 0.23435
0 0.513009 0.5 0 0.265761 -0.5 3.15544e-30 0.266245 0.5625 0
0.0805006 -0.5625 -6.31089e-30 0.0806264 0.25 0 0.512987 -0.25 0 0.513508
6.87235e-12 -3.15544e-30 0.5751 0.0625 0 0.575006 -0.0625 0 0.575154 0.5625
-3.18176e-18 0.142251 -0.5625 2.78172e-19 0.142507 0.4375 -3.799e-19 0.389292 -0.4375 4.15711e-19
0.389963 0.375 -3.25704e-18 0.451091 -0.375 -1.7012e-18 0.45178 0.125 3.22891e-18 0.574935
-0.125 2.76461e-18 0.575218 0.5 1.53587e-19 0.327515 -0.5 1.56796e-18 0.328131 0.5625
-3.15544e-30 0.204002 -0.5625 0 0.204393 0.3125 -3.04445e-18 0.512918 -0.3125 -1.22914e-18
0.513582 0.1875 -7.88861e-31 0.574873 -0.1875 3.15544e-30 0.57529 0.5625 0 0.265753
-0.5625 0 0.266284 -0.625 0 0 0.625 0 0 -0.625
0 0.01875 0.625 0 0.01875 0.249434 0 0.574782 0.25 -2.35481e-18
0.574782 -0.25 2.86973e-18 0.57537 0.25 0 0.576361 0.4375 0 0.451052
-0.4375 0 0.451849 0.625 -4.13928e-19 0.0805 -0.625 1.78069e-18 0.0806358 0.5
-3.15544e-30 0.389269 -0.5 0 0.390023 0.375 0 0.512859 -0.375 0
0.51366 8.59817e-12 0 0.636923 0.0625 -4.29693e-19 0.636828 -0.0625 2.53227e-18 0.636986
0.625 0 0.14225 -0.625 0 0.142527 0.125 0 0.636744 -0.125
0 0.63706 0.5625 0 0.327504 -0.5625 0 0.328182 0.3125 7.88861e-31
0.5747 -0.3125 0 0.575456 0.625 -2.48369e-18 0.204 -0.625 2.63567e-18 0.204423
0.1875 -2.99188e-18 0.636672 -0.1875 1.69459e-18 0.637144 0.5 -3.15544e-30 0.451023 -0.5
6.31089e-30 0.451922 0.4375 0 0.512812 -0.4375 0 0.513742 0.625 0
0.26575 -0.625 0 0.266325 0.25 0 0.636581 0.5625 -2.7276e-18 0.389255
-0.25 0 0.637237 -0.5625 -2.95645e-18 0.390085 0.375 -2.32583e-18 0.57463 -0.375
-1.63671e-19 0.575547 -0.6875 0 0 0.6875 0 0 -0.6875 7.54477e-19
0.01875 0.6875 2.80491e-18 0.01875 0.265822 0 0.636557 0.6875 0 0.0804911
-0.6875 2.52435e-29 0.0806455 1.08822e-11 3.25112e-18 0.698748 0.0625 -3.15544e-30 0.698655 -0.0625
0 0.698821 0.6875 0 0.142233 -0.6875 -5.02969e-19 0.142546 0.625 0
0.3275 -0.625 -2.67663e-18 0.32822 0.3125 2.79272e-18 0.636486 0.125 2.61292e-18 0.698557
-0.3125 -2.72054e-18 0.637337 -0.125 2.93961e-18 0.698907 0.5 -3.15544e-30 0.512778 -0.5
0 0.513828 0.6875 0 0.203976 -0.6875 0 0.204444 0.5625 0
0.451006 -0.5625 0 0.451996 0.4375 0 0.574574 -0.4375 0 0.575643
0.1875 0 0.698474 -0.1875 -6.31089e-30 0.699004 0.625 0 0.38925 -0.625
1.26218e-29 0.390123 0.6875 2.67855e-18 0.26572 -0.6875 3.2715e-19 0.266348 0.375 0
0.636404 -0.375 0 0.637442 0.25 -2.90235e-18 0.698407 -0.25 0 0.699111
-0.75 5.04871e-29 0 0.75 0 0 -0.75 5.04871e-29 0.01875 0.75
0 0.01875 0.75 0 0.0804865 -0.75 0 0.0806519 0.285281 3.9443e-31
0.698333 1.39788e-11 -6.31089e-30 0.760575 0.5625 -5.36693e-20 0.512757 0.6875 0 0.327466
0.5 -2.55668e-18 0.574533 -0.6875 0 0.328255 -0.5625 0 0.513884 -0.5
2.53415e-18 0.575741 0.0625 0 0.760507 -0.0625 -1.16387e-18 0.76066 0.75 0
0.142224 -0.75 0 0.142557 0.3125 0 0.698276 -0.3125 0 0.699225
0.125 0 0.760375 0.625 1.75231e-18 0.451 -0.125 -6.31089e-30 0.760759 -0.625
-3.24651e-18 0.45203 0.4375 -1.27166e-18 0.636338 -0.4375 -3.18222e-18 0.637551 0.75 -1.59252e-18
0.203961 -0.75 -3.38897e-18 0.204465 0.1875 -2.65116e-18 0.760279 -0.1875 0 0.76087
0.6875 4.68344e-19 0.389213 -0.6875 1.91147e-18 0.390167 0.375 0 0.698181 -0.375
1.91584e-18 0.699345 0.75 0 0.2657 -0.75 -5.04871e-29 0.266377 0.25 1.57772e-30
0.760201 -0.25 6.31089e-30 0.760991 0.5625 0 0.574508 -0.5625 0 0.57579
0.625 0 0.51275 -0.625 0 0.513942 0.5 0 0.63629 -0.5
0 0.637631 -0.8125 0 0 0.8125 -3.15544e-30 0 -0.8125 -2.65391e-19
0.01875 0.8125 -2.54486e-18 0.01875 0.8125 -3.15544e-30 0.0804832 -0.8125 0 0.080659
0.75 0 0.327439 -0.75 0 0.328293 0.308355 0 0.760081 0.3125
0 0.760072 0.6875 6.31089e-30 0.450962 1.8335e-11 -6.31089e-30 0.822406 -0.3125 -2.82488e-18
0.761121 -0.6875 0 0.452083 0.4375 0 0.698104 0.0625 6.31089e-30 0.822327
0.8125 2.65865e-18 0.142217 -0.0625 -6.31089e-30 0.822503 -0.8125 -1.243e-18 0.142571 -0.4375
0 0.699469 0.3125 -9.86076e-32 0.768058 0.125 -2.30523e-18 0.822198 -0.125 2.23709e-18
0.822616 0.8125 0 0.20395 -0.8125 1.00974e-28 0.204487 0.1875 3.15544e-30 0.822087
-0.1875 0 0.822743 0.75 0 0.389179 -0.75 0 0.390213 0.375
-1.57772e-30 0.759961 -0.375 0 0.761257 0.625 -3.56137e-19 0.5745 0.5625 5.79545e-20
0.63626 -0.625 3.27226e-18 0.575858 -0.5625 2.77466e-18 0.637702 0.8125 0 0.265684
-0.8125 0 0.266417 0.6875 0 0.512713 -0.6875 8.28782e-19 0.514003 0.5
0 0.698047 0.25 0 0.821997 -0.5 6.31089e-30 0.699537 -0.25 -1.344e-19
0.822881 -0.875 0 0 0.875 0 0 0.75 -2.10549e-18 0.45092
-0.875 0 0.01875 0.875 0 0.01875 -0.75 1.56797e-20 0.452151 0.8125
0 0.327419 -0.8125 -1.00974e-28 0.32834 0.4375 0 0.759871 -0.4375 -6.31089e-30
0.761365 0.875 5.04368e-19 0.0804812 -0.875 -2.51369e-18 0.080669 0.3125 0 0.821875
-0.3125 0 0.823027 2.47722e-11 -1.26218e-29 0.88424 0.0625 -1.66421e-18 0.884149 0.875
0 0.142212 0.33235 7.88861e-31 0.821834 -0.875 0 0.142591 -0.0625 2.92278e-18
0.884351 0.625 6.31089e-30 0.63625 0.125 0 0.884028 -0.625 0 0.637779
-0.125 1.26218e-29 0.88448 0.6875 0 0.574467 0.5625 6.31089e-30 0.698012 -0.6875
2.52435e-29 0.575948 -0.5625 0 0.699618 0.875 2.58384e-20 0.203944 -0.875 9.09699e-19
0.204515 0.8125 0 0.389154 -0.8125 3.37331e-18 0.390268 0.375 1.97423e-18 0.821747
0.1875 -1.85962e-18 0.8839 -0.1875 2.49188e-18 0.884624 -0.375 -1.97905e-18 0.82318 0.75
6.31089e-30 0.512662 -0.75 0 0.514078 0.5 0 0.759805 -0.5 0
0.761448 0.875 -6.31089e-30 0.265675 -0.875 0 0.266443 0.25 0 0.883795
-0.25 0 0.88478 0.8125 0 0.450889 -0.8125 0 0.452199 0.4375
3.15544e-30 0.821642 -0.4375 1.26218e-29 0.823271 0.875 -9.20802e-19 0.327407 -0.875 9.03125e-19
0.328375 0.6875 0 0.636224 0.625 -2.7446e-18 0.698 0.3125 -2.49404e-18 0.883686
-0.9375 4.03897e-28 0 0.9375 0 0 -0.9375 -1.92536e-18 0.01875 0.9375
4.53743e-19 0.01875 -0.6875 -3.21362e-18 0.637874 -0.625 1.90886e-19 0.699706 -0.3125 8.78757e-19
0.884945 0.9375 0 0.0804805 -0.9375 4.03897e-28 0.0806755 0.75 -1.26218e-29 0.574406
0.5625 1.00038e-18 0.759764 -0.75 0 0.576008 3.4849e-11 2.81091e-18 0.946078 -0.5625
-2.18181e-18 0.761541 0.0625 0 0.945974 0.9375 1.49422e-18 0.142211 -0.0625 -1.26218e-29
0.946205 -0.9375 1.98124e-18 0.142604 0.358506 3.9443e-31 0.883577 0.125 -1.04263e-18 0.945865
-0.125 2.57769e-18 0.946353 0.875 0 0.389138 -0.875 0 0.39031 0.9375
0 0.203942 -0.9375 4.03897e-28 0.204536 0.375 7.88861e-31 0.883538 0.8125 -2.70638e-18
[...]
POINT_DATA 9400
FIELD attributes 1
p 1 9400 float
1.92157 1.92099 2.08509 1.75278 2.08452 1.75214 1.92328 1.75422 2.08698 2.2432 1.57885
2.24265 1.57815 1.932 1.57998 2.24521 1.49246 1.76247 2.09609 1.49174 2.39586
1.40006 1.45096 2.39532 1.39932 1.58774 2.25464 1.4009 2.39794 1.9453 1.77512
2.11 1.42202 1.40816 2.4076 1.5997 2.26909 2.54318 1.2168 2.54266 1.216
1.4135 1.21735 2.54531 1.96346 1.79247 2.12892 1.41939 2.42248 1.40554 1.22409
2.55511 1.61619 2.28867 2.68534 1.02938 2.68482 1.02854 1.02965 1.23454 2.68749
2.57032 1.43493 2.44264 1.98687 1.39972 1.81494 2.15316 1.03585 2.69739 1.63761
2.31363 1.24905 2.59094 1.04548 2.71281 2.82244 0.838137 2.82191 0.837256 1.45519
2.4682 0.838122 2.82459 1.40018 2.01698 1.84395 2.18422 0.843739 2.83455 1.66539
2.34551 1.05888 2.73376 1.26803 2.61702 0.852489 2.85008 1.48158 2.50078 2.95474
0.643427 2.95423 0.642498 1.40404 0.643096 2.95693 2.05297 1.07645 2.76026 1.87865
2.22134 0.864679 2.87126 0.648087 2.96689 1.29287 2.65018 1.69864 2.38361 0.655866
2.98246 1.51318 2.53972 0.880705 2.89808 1.09958 2.79388 3.08262 0.44559 3.08213
0.444613 1.40674 0.444923 3.08484 0.666729 3.00377 2.09308 1.32262 2.68979 1.9173
2.26276 0.449232 3.09476 1.73561 2.42615 0.45596 3.11032 0.901928 2.93206 1.54827
0.681061 2.58318 3.0308 1.12728 2.834 3.20621 0.244868 3.20576 0.243846 1.40382
0.465381 3.1317 0.243851 3.20843 1.35557 2.73399 2.13946 1.96201 2.31055 0.247427
3.21821 0.700197 3.06499 0.927363 2.97251 1.77842 2.47515 0.477859 3.15875 0.253024
3.23381 1.15786 2.87873 1.58894 2.63316 0.260884 3.25523 3.32542 0.0414099 3.32503
0.0403422 1.39559 1.39383 2.7847 1.39499 0.723135 3.10562 0.0400261 3.32766 0.494718
3.19299 0.955326 3.01756 2.19406 2.0148 2.3667 0.0428138 3.33726 1.82911 2.53258
0.271341 3.28213 1.19341 2.92995 0.0471871 3.35294 1.63724 2.69161 0.514935 3.23369
0.748213 3.15079 0.053363 3.37445 1.43943 0.285719 2.8439 3.31622 0.987867 3.06905
3.43973 -0.16455 3.43948 -0.165667 1.38792 -0.166329 3.44221 2.25653 2.07534 2.43082
-0.164387 3.45163 0.0616424 3.40105 1.23595 1.88738 2.98963 2.59808 0.536869 3.27885
-0.161329 3.46739 0.302992 3.35692 0.777447 3.20234 1.69288 2.75819 0.0733435 3.43483
-0.156959 3.48907 1.02701 3.12897 1.49211 2.91126 3.54789 -0.372657 3.54792 -0.373827
-0.374862 3.55105 1.37534 2.32629 0.321521 -0.151003 0.562492 3.51536 3.40201 3.33025
2.14306 2.50231 -0.373816 3.56041 1.28526 3.05747 1.95268 0.0874352 2.67099 3.47551
0.812838 3.26224 -0.372152 3.57634 1.75535 2.8322 -0.142164 3.54877 1.07254 3.19698
-0.369694 3.59832 1.55133 2.98605 0.343218 3.45305 0.102292 3.5205 0.593772 3.3899
3.64948 -0.5825 3.64989 -0.583721 -0.585139 3.65337 -0.366198 3.62427 1.35476 1.3408
-0.131483 2.40418 3.13271 3.58943 0.854163 2.21879 -0.585024 2.58198 3.66269 3.33014
1.34888 2.02584 2.75207 -0.584812 3.67975 1.82544 2.91436 -0.360391 3.6573 1.12391
3.27232 0.119762 0.370023 3.57098 3.51222 -0.584358 3.70263 -0.12056 3.63424 0.630487
1.61789 3.45747 3.06894 3.74804 -0.793706 -0.353325 3.74875 -0.794974 3.698 -0.583449
3.72711 0.900892 3.40525 -0.796778 3.75085 1.40332 3.21598 2.49081 2.30313 -0.797624
1.33298 3.75897 2.67047 0.141751 2.1074 3.62944 2.84203 -0.107596 0.401731 3.68397
3.57933 -0.798922 3.78012 -0.580824 3.75876 1.18184 1.90369 3.00541 3.35559 -0.346563
3.74254 0.672105 3.53213 -0.800554 3.80559 1.69225 3.16072 -0.577532 3.80047 0.953701
3.48819 -0.802335 3.82528 -0.0907367 0.168059 1.47325 3.85016 -1.00594 3.85036 -1.00725
3.74159 3.69596 3.30808 -1.00946 3.848 -0.338359 0.437788 3.79131 2.58518 3.65338
2.39509 -1.0113 2.76678 3.85336 1.30649 2.19642 2.93986 -0.80301 3.85229 -1.01418
3.88044 1.24671 -0.575109 3.44764 3.84561 0.719258 3.61445 1.98914 3.10435 -1.01797
3.90934 1.77348 3.26035 -0.0701969 3.80742 -0.326923 0.198104 -0.803626 3.84809 3.89796
3.76926 1.01289 3.57986 1.28478 -1.02252 3.92264 -0.571886 0.478754 1.54963 3.89241
3.40798 3.73482 3.95362 -1.21876 3.95089 -1.22013 -1.22273 3.93115 2.68618 2.49362
2.86974 -1.22561 3.95282 -0.805701 3.94702 0.772185 -1.02658 2.29191 3.94327 3.04429
3.70543 1.31757 3.54738 1.28151 -1.23013 3.96366 -0.312494 -0.0465869 2.08089 3.20981
3.91331 3.87979 -0.566134 0.232373 3.94747 3.84954 -1.23616 4.00478 1.86074 3.36637
-1.03122 3.99449 1.07753 3.67909 -0.807647 0.524821 3.989 3.8248 -1.24352 4.00476
1.63172 3.51412 -1.4318 -1.43319 -1.43621 -0.295711 -1.03794 3.98458 0.829926 4.04974
2.79717 -0.558105 3.8038 -0.0194862 2.60205 2.98269 -1.44017 4.01294 3.9587 -1.25102
4.04339 1.39375 3.65322 2.39714 3.15866 -0.807796 -1.44636 0.271 4.03849 3.93823
2.18221 1.27103 3.32509 -1.45464 -1.25978 4.07777 1.14699 1.95733 3.48204 -1.0452
0.575025 3.78424 4.08523 3.92204 -1.46486 -0.548486 -0.276226 1.72274 4.08377 4.06194
3.62969 -0.806414 0.011162 4.10639 4.04601 -1.27124 0.89191 4.14458 4.1462 -1.64475
-1.64619 4.13787 3.9079 -1.64964 -1.47586 2.92186 1.47842 -1.05143 0.31302 2.72414
3.10931 -1.65469 4.12543 3.7683 4.03421 4.14279 2.51589 3.28663 -1.66254 2.29689
3.45378 1.28232 -1.28394 0.628806 4.16615 -1.48876 1.22441 -0.537013 4.02482 -1.67308
3.89844 4.15878 4.17464 2.06701 -0.254064 -0.80423 3.61089 4.17952 4.14788 0.0443697
-1.05691 4.19605 4.14064 -1.68615 1.82645 3.75818 -1.505 0.961197 4.02081 0.357883
-1.29637 4.22004 4.13554 -1.85717 -1.85866 -1.86256 -1.70065 1.57529 3.89605 4.23675
3.06045 2.86021 3.2497 -1.8687 2.64863 -0.523791 -0.801086 3.42815 4.25012 4.24266
-1.87822 -0.230243 -1.0624 0.689119 2.42547 -1.52321 4.27338 4.24114 3.59573 4.13607
1.32784 -1.7177 1.31346 4.02501 -1.89098 2.19041 0.0796149 -1.30887 3.75263 4.27163
4.24037 -1.90689 1.94359 3.89925 1.04138 -1.73874 0.408424 -1.54195 4.14578 4.31575
4.24482 -0.797173 4.32902 -0.509861 -1.06783 4.33842 4.33519 -1.92486 1.37922 4.31357
-2.06844 -2.06998 1.68512 4.30473 4.03601 -2.07431 -0.205266 3.21269 -1.32223 3.01007
3.40353 4.35879 4.33912 -2.08149 4.28095 2.79523 3.58278 0.759461 -1.7625 4.25908
-2.09265 2.56784 1.41491 3.7504 -1.94605 1.41085 0.119615 -1.56158 4.16339 4.34743
-2.10761 2.32754 3.90667 4.3371 -0.793569 -1.07353 4.41017 4.4231 0.46799 -2.12631
-1.7876 1.13328 2.07422 -1.97188 -0.495748 -1.33646 4.36552 4.05222 4.28215 4.41016
4.432 4.40267 -0.176535 -1.58294 4.44381 -2.14771 1.8081 4.1874 -2.27791 -2.27948
4.3732 -2.28421 3.37982 0.840746 3.17495 3.57202 -2.00115 -2.29241 4.39319 2.95689
0.16751 3.75168 -1.81442 4.46555 -2.30514 1.52925 1.52277 -2.173 2.72526 4.3127
-1.08064 3.91893 4.50781 -0.790842 -1.35202 4.4967 4.52162 -2.32224 2.47981 4.07419
-0.479011 -1.60615 4.53359 0.537648 -2.03259 4.49716 1.23777 -2.20357 -2.34367 4.42902
2.22015 4.21824 -0.141139 4.4716 -1.84386 4.55932 4.51151 1.94647 -2.36844 4.35136
0.934208 -2.48497 -2.48658 -1.08975 -2.2383 -1.37013 0.224539 4.53735 -2.06661 -2.4917
4.58028 4.61057 4.59452 3.56313 3.35624 -0.786731 3.75634 -1.63176 -2.50088 4.61756
3.13525 3.93601 1.65909 1.65296 -2.39776 4.47409 -2.51512 2.89983 -0.456943 4.10238
-1.87615 4.64577 -2.5343 0.618996 2.64983 -2.27602 4.25625 4.6384 1.35766 -0.09769
-2.43299 4.53117 -2.10416 4.58754 4.6854 2.3843 -2.55839 4.39828 -1.39141 -1.09877
4.69134 -1.66105 4.69859 2.10317 -2.58647 -0.778715 0.29262 -1.91194 4.52877 1.04259
-2.3172 4.72266 -2.47309 4.73262 4.69263 4.66226 -2.68892 -2.69056 -2.69604 3.76368
3.55557 -0.427999 3.95722 -2.14557 -2.70617 1.80683 4.76933 3.33257 1.79511 -2.61971
4.13635 4.64847 -2.7219 3.09415 4.30132 0.714434 -2.51702 4.79011 -0.0440398 2.83993
-2.74311 -2.36282 -1.41399 -1.69476 4.45325 4.82 1.49478 4.76504 -2.65949 -1.10536
4.75852 -1.95257 4.65821 4.79218 2.56861 -2.76978 4.59264 -0.765138 -2.19157 4.84572
0.373653 -2.56525 1.16695 2.27937 4.88051 -2.80106 -2.70486 4.71989 4.85984 -0.389935
-2.41328 4.90073 4.57341 -2.88925 -2.89091 4.56715 -2.89673 3.98389 3.7758 1.97284
4.17634 1.94445 -2.83814 -1.73122 -2.90777 3.55152 4.83597 -1.43569 4.35366 -1.99885
4.86799 0.824192 0.824229 -2.92494 3.3102 0.021088 -2.75487 4.51652 4.83413 4.95323
-1.10785 -2.61881 -2.24361 4.96384 4.91623 3.05126 -2.9481 1.64897 1.64899 4.66576
-2.88236 4.94201 -0.743801 4.60508 -2.46945 4.97683 2.77357 -2.97725 4.80173 4.77825
0.46715 0.467197 -2.81002 5.03934 1.30702 1.30703 1.3069 -0.342135 2.47548 -2.93286
-2.67822 5.03901 -3.01161 5.03992 4.92505 -1.76843 -2.04936 -1.45485 -2.30252 4.9755
-3.08562 -3.08729 2.15772 -3.09343 -1.10418 4.2271 4.01957 -3.0524 -2.53283 4.41717
5.03682 0.09659 0.0966413 0.947993 -3.10532 5.05013 3.79373 -2.87139 4.59098 -2.98878
5.11833 5.12789 3.54886 -3.12384 4.06543 4.75027 -0.714733 -2.7444 1.82104 3.28464
5.10979 -3.14885 -3.10091 3.86172 5.13816 4.8956 -2.10228 0.572938 3.0003 4.71628
-3.18041 -1.80473 -2.36708 5.0272 -3.0507 5.20939 -0.286186 -0.286137 5.0149 -2.93954
1.46426 5.18931 -1.46963 -2.60428 -3.15638 5.23014 2.69354 -3.21775 5.11621 5.14583
4.95963 -1.09497 -1.09496 -2.81893 5.1754 0.182517 2.36415 -3.27775 -3.27942 1.08773
-3.11967 -3.26209 5.25249 -3.28586 5.28361 4.43931 4.49451 4.28762 4.68186 -3.21803
5.31384 4.51099 -3.29858 4.06015 4.05982 4.06045 -0.679879 -0.679869 -0.680186 4.85131
-3.01551 5.25133 3.81167 -3.31839 -2.15607 5.00535 -2.43576 2.01361 4.74514 -1.83857
-2.68277 -3.31472 3.54207 5.34832 -3.34517 5.1449 0.692966 -1.48113 -1.48113 -0.221874
-2.90269 -3.28647 5.39011 3.25106 -3.1963 5.34982 -3.37903 5.27079 5.22763 1.64147
-3.37498 5.43444 -1.08249 -3.10089 2.93646 5.30733 -3.41924 5.38373 0.280808 -3.36277
-2.50721 5.45888 1.24616 1.24619 2.5954 1.24618 -0.63885 -2.20942 -2.76711 -3.467
5.48434 -3.44217 -3.28173 -3.46529 5.51201 -3.46697 5.40906 -3.47368 4.78622 2.43012
4.58092 4.57055 -1.87151 -1.87153 4.97028 5.22146 -2.99487 4.35319 5.08262 -3.48718
4.90126 5.11214 5.13538 4.1022 -3.50822 2.23027 2.23028 2.23028 5.16233 5.28333
-1.49193 -3.52359 -3.19665 5.5737 3.82731 -0.147448 0.829973 0.829993 0.829995 -3.53669
5.41548 5.368 -3.44757 -3.51685 5.51999 5.58204 3.52964 -1.06636 -3.57274 5.53391
1.84119 1.84119 1.84119 4.73085 -3.3776 5.46581 -3.58845 5.65305 5.39638 -2.58028
-2.85619 3.20675 -2.26427 -2.2643 -3.61569 -3.09461 5.63954 0.393865 0.393887 0.393889
-0.590135 -3.60012 5.64444 -1.90638 -3.54208 1.42691 1.4269 1.42691 -3.30213 5.57692
2.85568 -3.66091 5.72366 -3.66673 5.73286 4.78463 -3.64772 -3.64942 4.78065 -3.65639
-1.50189 5.10444 4.94576 4.90167 5.2838 -3.48493 4.67434 -3.67062 5.44342 5.51541
2.47603 4.42272 -0.0609409 -0.0609205 -0.0609185 -3.69281 5.58457 -3.72712 5.8147 0.987848
-3.69275 5.69879 5.64737 4.1451 -3.74153 5.78653 -1.04538 -3.72288 -2.94896 5.70874
-2.65719 -2.65724 -3.64799 -3.20108 5.63437 4.81057 3.84172 -2.3237 2.06869 5.75184
-3.41683 5.32157 -3.761 5.81822 -3.79633 5.88642 5.47142 -1.94332 0.525332 3.51005
-0.532527 -0.532522 -0.532536 -0.53252 -3.60321 5.91447 -3.80656 -3.83145 5.84168 -3.79594
5.74742 1.63295 -1.51028 -3.87377 5.94928 3.14749 -3.76637 5.99866 -3.86073 5.68253
-3.82439 -3.82609 5.2473 5.24672 -3.8333 -3.04784 -3.04789 5.44851 -3.3133 5.62294
0.0410359 5.02306 -3.84821 -2.74137 6.01043 5.77693 -3.54025 2.75312 -3.93151 5.15689
5.88821 1.16875 -1.0186 4.77346 6.0718 -3.9247 -3.87144 5.90999 -3.91135 -3.96003
-2.38824 6.00418 5.79383 -3.73228 4.49671 -3.90299 6.02538 4.90595 2.32673 -1.98215
4.1892 -3.8969 6.12499 6.13483 -3.998 -3.94309 6.14814 -0.463035 0.677221 -4.04291
5.92608 -4.05625 3.8491 6.05121 6.21025 -3.99113 -1.51668 1.86791 -3.43379 -3.43433
-4.04021 -3.15662 -3.67145 -4.08012 6.18883 5.82847 3.47501 6.27125 -2.83377 -3.87202
6.28339 -4.04822 5.53914 0.1602 5.81433 -3.99481 5.81611 -3.99649 -2.45824 5.98169
-0.984399 5.98427 5.626 5.98485 -4.16328 -4.00389 6.09024 -4.03963 5.40865 -4.1673
3.0656 1.37646 -4.01938 5.95856 6.13434 5.7491 6.34596 -4.11552 -4.17166 6.23471
5.16242 -4.04358 6.259 -2.02312 4.8858 -4.18237 -4.07652 6.36575 2.61961 -0.380147
4.57552 6.39879 -4.19266 -3.56669 -3.81293 -3.81357 6.45443 -4.11848 0.853199 -4.28239
6.12218 -3.27674 -4.02154 -4.27376 -1.51983 6.27275 -4.30601 4.22835 -2.93529 6.52806
-4.16885 5.9932 -4.19485 2.13636 6.44259 -4.27914 5.07774 3.84314 -2.53471 6.57979
6.58867 -4.33794 6.58959 -4.22867 0.299936 -0.941089 -4.38732 6.30384 -4.41519 6.15019
-4.15905 6.22411 -4.16073 1.61556 6.381 6.04276 -4.16825 3.41866 6.51237 -2.06559
6.51477 5.83298 6.47801 -4.37557 -4.18421 6.6385 -4.29908 -4.45903 -3.96912 6.62471
6.62856 5.59177 6.62913 -3.7139 -4.20932 -4.18311 -3.4096 5.31678 -4.3618 -4.24358
6.72756 -0.280991 2.95277 6.71429 -4.51359 6.33034 6.67907 1.05768 -4.37976 -1.51897
-3.04766 5.00526 5.8076 6.80508 -4.56305 -4.28725 -4.50761 6.50609 -4.48311 6.1735
5.47855 4.65315 2.444 6.86782 -2.6177 -4.33976 -4.62651 6.71101 -4.47026 6.04695
-0.886567 0.464372 4.25768 -4.65417 6.91511 6.35438 -4.40211 6.52763 -4.6027 -4.14243
-4.36099 -4.36143 -4.36154 -3.87739 -2.10942 -4.54239 1.8917 -4.72607 4.96808 -4.31694
6.66937 -4.31867 6.73498 3.81821 -4.57119 -3.55766 6.81316 6.49897 4.96386 -4.32621
-4.69089 6.9504 6.93285 6.29859 -4.47538 -4.34246 7.03151 6.0647 -4.36841 -0.161943
-3.17171 -1.51269 7.10725 -4.8095 7.11073 5.79408 -4.73557 6.54404 3.33234 -4.4039
1.29611 -4.81041 6.97401 6.9763 -4.55925 6.97904 6.3691 6.75218 -4.68372 7.16875
7.17408 5.4835 7.17446 4.95917 -4.44912 -2.70784 -4.90443 -4.55944 5.12927 2.79735
-4.33533 -4.74139 5.30436 -4.74322 7.22636 -4.50355 6.99434 -4.65338 -0.817937 -4.0603
-4.88922 0.658584 -4.88326 6.55555 4.72572 -2.15429 6.76288 -4.80881 -3.72258 7.26049
-4.5682 -4.98251 -5.00784 2.2117 7.00597 -4.75842 6.07619 4.27168 -4.46788 7.153
-4.46968 -3.30896 7.11859 7.28154 6.99664 -4.47724 7.28235 -4.64401 -5.0995 7.38524
6.80881 -4.49375 -0.018488 -1.49905 7.46672 6.5854 6.76685 -4.94767 -4.52053 -5.04708
6.55864 1.57526 3.7658 5.07252 7.52837 6.32247 -4.78002 -4.9623 -4.55713 -2.80596
7.29195 7.0113 -4.73073 -4.87548 -4.55171 -5.10729 -5.1081 -5.1707 7.57328 6.01597
6.37426 -4.60374 -4.26509 -5.22249 3.20416 -0.731556 7.59861 7.60285 5.66189 7.29414
-4.82811 -4.65989 -5.10178 -3.90679 0.88907 -2.19945 -5.23925 6.76543 -5.31153 7.01076
-5.22737 -5.00549 7.29282 7.61467 5.25409 7.62066 7.62075 -4.72655 2.58365 -3.46138
-5.37653 7.29132 -4.93681 4.78823 -5.20839 -5.02773 -5.41952 -5.34908 -1.47553 0.155285
7.63068 -4.6111 7.67764 -4.61288 -4.8046 7.78757 7.53893 -4.62064 -5.2724 -4.79473
7.00559 7.87203 7.3674 -5.14968 -4.63783 -5.45787 6.76041 -2.91269 7.93392 7.15837
-4.66551 1.90335 -5.42435 4.26284 5.8778 -4.495 7.28333 -5.05789 -5.54101 7.97601
6.90717 7.62497 -4.89382 -4.70311 7.42077 8.00077 6.60894 -4.11339 -4.75097 -0.622482
-5.60077 3.67417 -2.24379 5.19913 -5.30947 6.99674 7.61211 1.1638 8.0103 6.25843
-5.45994 -4.99408 6.38005 -4.80863 -5.68109 7.27088 -5.19225 -5.48476 -3.63115 -5.61833
-5.63962 -5.30631 8.0076 5.85017 -5.71845 5.57495 -4.87703 3.01768 7.59255 -5.06827
-5.10597 -5.79195 -1.43858 0.366718 5.37672 7.98856 7.99342 -5.48607 6.98429 7.25706
-3.02855 -4.95701 -5.3411 7.58011 -4.75432 -4.74658 8.24604 -4.74825 8.33344 8.1292
-4.75641 -5.84365 -5.66469 8.39503 7.9784 6.74358 -4.77459 2.2908 8.43396 7.78841
7.56874 7.9631 4.83351 -4.80313 -5.23054 7.97125 7.97085 -4.34613 -5.92885 -5.04843
8.45329 7.55383 -4.84164 -5.87455 7.60478 -0.484407 -2.28543 -5.92049 8.45575 7.26902
-5.79559 -6.00826 -4.89059 -5.50586 -5.67993 7.23941 4.21793 1.49301 -5.62022 7.94627
-6.06912 -5.15118 -3.82072 7.54213 8.44357 6.92756 -5.36867 -5.88819 -4.94955 -5.37759
-6.10839 8.41875 6.52266 3.52505 -5.01945 -1.38347 7.91052 -5.26582 -5.04841 -5.68762
0.625413 -3.1538 -6.12932 7.21004 7.51431 -5.89144 -5.52157 8.38321 6.04794 -6.16749
-5.1011 -4.8749 8.86105 -4.87649 8.92151 8.77093 -4.88501 2.74978 -4.60955 8.9562
8.64609 -6.25994 -6.33293 -4.90393 7.86923 -6.13229 -5.39337 5.49129 -6.14589 5.41395
8.96848 8.48065 -6.37678 8.34077 -4.9331 6.71751 -5.19438 -2.32187 8.96166 8.26859
-5.97538 -0.308837 -6.05471 -6.39992 -4.97237 -6.08961 -5.8869 -6.00731 -5.69057 7.48094
-4.03275 8.9388 8.00339 1.88927 4.84936 8.28541 -6.21742 -5.02224 7.83158 -5.72944
-6.12202 8.29382 8.29248 -6.40615 7.82611 -5.29923 -5.53475 -6.03164 7.84367 8.9021
7.67735 -5.08229 -6.00571 -5.38384 -5.96482 -6.3973 -6.39756 -6.39938 -1.30352 4.12006
8.85355 7.28207 -3.28865 -5.15343 8.24218 -5.87677 7.44252 -5.4162 0.943607 -6.10423
-6.69698 7.14229 -6.64204 -6.72059 7.78066 -5.69111 -6.54226 -4.90897 8.79554 6.81036
-6.72276 -6.37376 -5.23643 -6.03179 3.29523 -6.37981 -4.99589 9.52511 -4.99742 -6.62432
9.55363 9.46733 -5.0061 -6.70989 8.18338 -6.02145 -5.54629 9.55704 9.37445 -5.02541
6.3633 6.24858 -2.34903 8.73097 9.5386 9.23991 -0.0846638 -5.05497 -5.33122 -6.08073
5.90326 -6.13165 -4.27054 7.72868 -5.86374 9.50187 9.05742 -6.68455 -5.09482 -6.34085
2.36832 9.45038 8.81953 5.58711 -6.32988 8.12394 8.66158 -5.14541 -5.69039 -5.43777
-5.76848 -6.64731 -7.10585 -7.10507 9.38635 8.51688 -5.20631 -7.07387 -7.08244 -1.18958
-3.43242 -6.0496 8.57363 -6.04808 4.82235 -6.05372 7.67385 -6.30306 -6.99362 8.58679
-7.04534 9.31162 8.13936 1.3372 8.06902 -5.55662 -5.27841 -5.25107 8.063 -5.8496
-6.59885 -6.84368 8.08746 -6.99852 7.07248 9.22867 7.67761 8.48581 -5.36244 3.9463
8.50896 8.50535 -2.36076 -6.59595 -5.68871 -5.109 10.2406 -5.11048 10.2315 10.2215
-5.11926 -6.94344 0.202933 10.199 10.1678 -4.53752 -6.26167 -5.13879 9.14019 7.12001
5.62989 -6.54489 10.1453 10.0713 7.99778 -5.45839 -6.02516 -6.78064 -6.03004 -5.16859
-6.03007 -7.53564 -7.56678 -7.48343 10.0746 9.9272 -7.52783 -5.20885 2.95026 -6.21251
-7.56468 -5.22734 -7.41783 -5.21423 -5.2519 -6.87955 8.43395 6.44865 -5.29994 -5.8349
-5.18821 9.0475 9.99083 9.72577 -5.25994 -5.35829 -5.56625 -5.17373 -7.51113 -7.34411
-5.42677 -3.58319 -1.02917 -5.96358 9.89666 9.45699 -5.91952 -5.50441 -5.16998 -5.32145
-6.48815 7.56574 7.93863 -6.21813 -5.64387 -5.59007 5.65274 -7.37957 1.82734 8.9507
-5.66663 -5.87444 -7.26587 -6.80814 -5.68252 -5.17463 -5.17608 9.79293 9.1074 -5.77802
-5.68653 8.3583 -5.9963 -5.39424 -7.13512 9.68242 8.66807 -7.18356 4.72516 -5.47902
-2.34827 -8.01936 -7.93086 8.85149 -4.83709 -8.08892 -7.83159 -5.82013 -6.42907 0.574749
8.29085 -6.73415 -5.21383 11.0086 -8.09147 -5.21526 10.9541 11.0337 -5.22408 8.27889
-8.12599 -6.17411 -7.72664 9.56771 10.8814 11.0266 8.12463 -5.24375 -6.72871 -5.57579
10.7877 10.9753 -5.27373 -7.09479 8.73074 8.31971 -8.10848 3.65795 10.6796 10.8811
-7.61974 8.75364 -5.31427 8.74659 -5.96792 9.45056 7.45604 10.5584 10.7253 -3.73748
-7.93114 -5.68458 -5.36566 -0.803667 -8.00323 -6.65856 -6.09691 -7.51349 8.19179 -6.36928
10.4316 10.5018 -7.00134 -5.42758 7.46727 2.4382 6.63999 -8.15871 9.33062 8.65974
-8.43137 -6.13097 -5.80593 -8.56495 -8.29136 10.2962 10.191 -7.76614 -5.50083 -7.40529
-8.6837 -8.15009 -8.46346 -8.73658 -2.29713 -5.17292 -8.7722 10.1561 9.78995 5.66733
-8.01018 -8.67517 9.2091 -6.58239 -5.58608 6.3084 -6.90756 1.05517 -5.94065 -7.3331
8.56237 -6.31043 -8.80295 -7.29195 5.2236 -5.31021 11.8261 -5.31158 -7.87406 11.6039
11.7749 -5.32039 10.0117 9.27218 5.22068 11.602 11.9476 -5.34013 -5.68336 11.3645
11.8034 4.52939 -5.37019 6.92378 9.08816 -8.73488 11.315 11.9159 -6.08959 -3.88736
-5.41088 -7.74054 9.86867 8.61706 -0.4902 -6.62235 8.0165 -6.81405 8.45886 -8.99306
-8.80331 -5.79275 11.0618 11.6599 5.91487 8.47212 -7.17753 -5.4624 -9.18326 -6.50719
-8.61848 8.93454 8.1837 -9.36556 10.9901 11.6492 -8.4402 3.2097 -8.5111 -5.52451
8.96943 -7.60656 9.72346 7.7963 7.79665 7.79635 8.958 -6.25379 -5.91478 -9.52154
10.7426 -8.26845 11.2135 -5.59801 -5.54616 -2.18962 -7.06523 -8.80699 -6.72185 6.79663
-9.61736 -8.04683 10.6486 11.0446 9.57798 -8.10451 1.684 -5.68345 -7.47065 -6.05023
8.85227 -6.43433 10.4017 -5.39824 10.3871 -5.39956 -9.37465 -9.6021 -5.40833 -9.62584
-9.13711 -5.78094 -8.77453 -7.94554 -5.42804 5.59775 -9.88806 -8.9135 -4.02334 9.43196
5.31146 -5.45807 -7.23279 -6.19986 -6.95504 -0.0476726 -10.1525 -7.33726 -5.49873 -8.70211
10.3013 9.93485 7.85035 8.73594 8.73509 -6.63208 -5.8906 -9.39984 -5.55022 -7.78814
-10.3977 4.17687 -8.50149 9.12703 9.29015 -5.61233 -6.36469 10.0683 8.93296 8.81781
-6.01294 -5.95914 -10.5827 -1.99026 -8.31213 -7.20771 -5.6858 -8.89539 9.11117 -10.4157