# vtk DataFile Version 2.0
sampleSurface
ASCII
DATASET POLYDATA
POINTS 9400 float
2.60369e-12 7.88861e-31 0 2.60369e-12 7.88861e-31 0.01875 -0.0625 0 0 0.0625 0
0 -0.0625 2.04574e-18 0.01875 0.0625 2.27264e-18 0.01875 2.45838e-12 -7.88861e-31 0.0805546
0.0625 0 0.080548 -0.0625 0 0.0805619 -0.125 0 0 0.125
0 0 -0.125 0 0.01875 0.125 0 0.01875 2.44092e-12 0
0.142361 0.125 -2.36236e-18 0.080537 -0.125 -1.99734e-18 0.0805727 0.155198 9.86076e-32 0
0.0625 2.25713e-18 0.142348 -0.0625 6.58074e-19 0.142376 0.155198 9.86076e-32 0.01875 -0.1875
0 0 0.1875 -1.97215e-31 0 0.17003 9.86076e-32 0.0805311 -0.1875 6.18262e-19
0.01875 0.1875 1.13376e-18 0.01875 0.125 0 0.142327 -0.125 -1.57772e-30 0.142397
0.1875 0 0.0805288 -0.1875 1.57772e-30 0.0805786 2.55289e-12 4.58002e-19 0.20417 0.0625
0 0.204149 -0.0625 0 0.204193 0.182675 -2.46519e-32 0.142311 0.1875 -2.46519e-32
0.14231 -0.1875 3.44655e-18 0.142409 0.125 1.8947e-18 0.20412 -0.125 8.62579e-19 0.204222
-0.25 0 0 0.25 0 0 -0.25 0 0.01875 0.25
0 0.01875 0.1875 0 0.171657 0.25 -1.85988e-18 0.0805215 -0.25 -7.89071e-19
0.0805852 2.80171e-12 0 0.265981 0.0625 -3.12196e-18 0.265952 -0.0625 0 0.266014
0.1875 0 0.204094 -0.1875 1.57772e-30 0.204241 0.192183 0 0.204092 0.25
0 0.142295 -0.25 0 0.142423 0.125 3.9443e-31 0.265926 -0.125 0
0.266049 -0.3125 1.57772e-30 0 0.3125 7.88861e-31 0 -0.3125 -2.90674e-18 0.01875
0.3125 -1.27488e-19 0.01875 0.3125 0 0.0805151 0.25 0 0.20407 -0.3125
0 0.0805924 -0.25 0 0.204262 0.1875 0 0.26588 -0.1875 5.62479e-19
0.266075 3.20058e-12 0 0.327795 0.199338 -9.86076e-32 0.265874 0.0625 0 0.327757
-0.0625 0 0.327848 0.3125 -2.71896e-18 0.142282 -0.3125 2.78209e-18 0.142437 0.125
6.9163e-19 0.327724 -0.125 2.08789e-18 0.327878 0.25 0 0.265848 -0.25 0
0.266105 0.3125 0 0.204049 -0.3125 0 0.204285 -0.375 0 0
0.375 0 0 -0.375 0 0.01875 0.375 0 0.01875 0.1875
0 0.32767 -0.1875 0 0.327912 0.375 -8.46552e-19 0.0805098 -0.375 -8.58061e-19
0.0806002 0.205871 0 0.327658 3.76968e-12 0 0.389612 0.0625 3.97291e-19 0.389565
-0.0625 2.2957e-18 0.389672 0.375 0 0.14227 -0.375 0 0.142454 0.125
0 0.389523 -0.125 0 0.389709 0.3125 0 0.265819 -0.3125 0
0.266137 0.25 -1.46378e-18 0.327628 -0.25 3.03983e-18 0.32795 0.375 0 0.204032
-0.375 2.41679e-18 0.20431 0.1875 -1.87127e-18 0.389464 -0.1875 3.73964e-19 0.389752 -0.4375
0 0 0.4375 0 0 -0.4375 1.89554e-18 0.01875 0.4375 -2.57557e-18
0.01875 0.213183 0 0.389442 0.4375 1.57772e-30 0.0805056 -0.4375 0 0.0806086
4.53883e-12 -3.03619e-18 0.451433 0.3125 0 0.32759 -0.3125 0 0.327991 0.0625
0 0.451375 -0.0625 1.57772e-30 0.451497 0.375 0 0.265795 -0.375 -1.57772e-30
0.266171 0.4375 3.41059e-18 0.142262 -0.4375 -9.03976e-19 0.142471 0.25 0 0.389411
-0.25 0 0.389799 0.125 -2.36403e-18 0.451324 -0.125 -5.90775e-19 0.451542 0.4375
0 0.204018 -0.4375 0 0.204337 0.1875 0 0.451262 -0.1875 0
0.451594 0.375 1.63705e-18 0.327558 -0.375 3.27259e-18 0.328036 0.3125 0 0.389363
-0.3125 -1.14983e-18 0.38985 -0.5 0 0 0.5 1.57772e-30 0 -0.5
0 0.01875 0.5 1.57772e-30 0.01875 0.222412 0 0.451226 0.5 2.84117e-18
0.0805025 -0.5 2.92717e-18 0.0806173 0.4375 -2.12621e-18 0.265775 -0.4375 -1.47432e-18 0.266207
5.55162e-12 1.57772e-30 0.513258 0.25 0 0.451197 -0.25 0 0.451651 0.0625
0 0.513189 -0.0625 4.3536e-19 0.513324 0.5 1.57772e-30 0.142255 -0.5 0
0.142489 0.125 0 0.513128 -0.125 0 0.513378 0.5 -1.57772e-30 0.204008
-0.5 3.15544e-30 0.204364 0.375 1.57772e-30 0.389324 -0.375 0 0.389905 0.1875
0 0.513077 0.4375 0 0.327533 -0.1875 0 0.51344 -0.4375 0
0.328082 0.3125 0 0.451139 -0.3125 3.15544e-30 0.451713 -0.5625 6.31089e-30 0
0.5625 3.15544e-30 0 -0.5625 -1.00175e-18 0.01875 0.5625 -2.39654e-18 0.01875 0.23435
0 0.513009 0.5 0 0.265761 -0.5 3.15544e-30 0.266245 0.5625 0
0.0805006 -0.5625 -6.31089e-30 0.0806264 0.25 0 0.512987 -0.25 0 0.513508
6.87235e-12 -3.15544e-30 0.5751 0.0625 0 0.575006 -0.0625 0 0.575154 0.5625
-3.18176e-18 0.142251 -0.5625 2.78172e-19 0.142507 0.4375 -3.799e-19 0.389292 -0.4375 4.15711e-19
0.389963 0.375 -3.25704e-18 0.451091 -0.375 -1.7012e-18 0.45178 0.125 3.22891e-18 0.574935
-0.125 2.76461e-18 0.575218 0.5 1.53587e-19 0.327515 -0.5 1.56796e-18 0.328131 0.5625
-3.15544e-30 0.204002 -0.5625 0 0.204393 0.3125 -3.04445e-18 0.512918 -0.3125 -1.22914e-18
0.513582 0.1875 -7.88861e-31 0.574873 -0.1875 3.15544e-30 0.57529 0.5625 0 0.265753
-0.5625 0 0.266284 -0.625 0 0 0.625 0 0 -0.625
0 0.01875 0.625 0 0.01875 0.249434 0 0.574782 0.25 -2.35481e-18
0.574782 -0.25 2.86973e-18 0.57537 0.25 0 0.576361 0.4375 0 0.451052
-0.4375 0 0.451849 0.625 -4.13928e-19 0.0805 -0.625 1.78069e-18 0.0806358 0.5
-3.15544e-30 0.389269 -0.5 0 0.390023 0.375 0 0.512859 -0.375 0
0.51366 8.59817e-12 0 0.636923 0.0625 -4.29693e-19 0.636828 -0.0625 2.53227e-18 0.636986
0.625 0 0.14225 -0.625 0 0.142527 0.125 0 0.636744 -0.125
0 0.63706 0.5625 0 0.327504 -0.5625 0 0.328182 0.3125 7.88861e-31
0.5747 -0.3125 0 0.575456 0.625 -2.48369e-18 0.204 -0.625 2.63567e-18 0.204423
0.1875 -2.99188e-18 0.636672 -0.1875 1.69459e-18 0.637144 0.5 -3.15544e-30 0.451023 -0.5
6.31089e-30 0.451922 0.4375 0 0.512812 -0.4375 0 0.513742 0.625 0
0.26575 -0.625 0 0.266325 0.25 0 0.636581 0.5625 -2.7276e-18 0.389255
-0.25 0 0.637237 -0.5625 -2.95645e-18 0.390085 0.375 -2.32583e-18 0.57463 -0.375
-1.63671e-19 0.575547 -0.6875 0 0 0.6875 0 0 -0.6875 7.54477e-19
0.01875 0.6875 2.80491e-18 0.01875 0.265822 0 0.636557 0.6875 0 0.0804911
-0.6875 2.52435e-29 0.0806455 1.08822e-11 3.25112e-18 0.698748 0.0625 -3.15544e-30 0.698655 -0.0625
0 0.698821 0.6875 0 0.142233 -0.6875 -5.02969e-19 0.142546 0.625 0
0.3275 -0.625 -2.67663e-18 0.32822 0.3125 2.79272e-18 0.636486 0.125 2.61292e-18 0.698557
-0.3125 -2.72054e-18 0.637337 -0.125 2.93961e-18 0.698907 0.5 -3.15544e-30 0.512778 -0.5
0 0.513828 0.6875 0 0.203976 -0.6875 0 0.204444 0.5625 0
0.451006 -0.5625 0 0.451996 0.4375 0 0.574574 -0.4375 0 0.575643
0.1875 0 0.698474 -0.1875 -6.31089e-30 0.699004 0.625 0 0.38925 -0.625
1.26218e-29 0.390123 0.6875 2.67855e-18 0.26572 -0.6875 3.2715e-19 0.266348 0.375 0
0.636404 -0.375 0 0.637442 0.25 -2.90235e-18 0.698407 -0.25 0 0.699111
-0.75 5.04871e-29 0 0.75 0 0 -0.75 5.04871e-29 0.01875 0.75
0 0.01875 0.75 0 0.0804865 -0.75 0 0.0806519 0.285281 3.9443e-31
0.698333 1.39788e-11 -6.31089e-30 0.760575 0.5625 -5.36693e-20 0.512757 0.6875 0 0.327466
0.5 -2.55668e-18 0.574533 -0.6875 0 0.328255 -0.5625 0 0.513884 -0.5
2.53415e-18 0.575741 0.0625 0 0.760507 -0.0625 -1.16387e-18 0.76066 0.75 0
0.142224 -0.75 0 0.142557 0.3125 0 0.698276 -0.3125 0 0.699225
0.125 0 0.760375 0.625 1.75231e-18 0.451 -0.125 -6.31089e-30 0.760759 -0.625
-3.24651e-18 0.45203 0.4375 -1.27166e-18 0.636338 -0.4375 -3.18222e-18 0.637551 0.75 -1.59252e-18
0.203961 -0.75 -3.38897e-18 0.204465 0.1875 -2.65116e-18 0.760279 -0.1875 0 0.76087
0.6875 4.68344e-19 0.389213 -0.6875 1.91147e-18 0.390167 0.375 0 0.698181 -0.375
1.91584e-18 0.699345 0.75 0 0.2657 -0.75 -5.04871e-29 0.266377 0.25 1.57772e-30
0.760201 -0.25 6.31089e-30 0.760991 0.5625 0 0.574508 -0.5625 0 0.57579
0.625 0 0.51275 -0.625 0 0.513942 0.5 0 0.63629 -0.5
0 0.637631 -0.8125 0 0 0.8125 -3.15544e-30 0 -0.8125 -2.65391e-19
0.01875 0.8125 -2.54486e-18 0.01875 0.8125 -3.15544e-30 0.0804832 -0.8125 0 0.080659
0.75 0 0.327439 -0.75 0 0.328293 0.308355 0 0.760081 0.3125
0 0.760072 0.6875 6.31089e-30 0.450962 1.8335e-11 -6.31089e-30 0.822406 -0.3125 -2.82488e-18
0.761121 -0.6875 0 0.452083 0.4375 0 0.698104 0.0625 6.31089e-30 0.822327
0.8125 2.65865e-18 0.142217 -0.0625 -6.31089e-30 0.822503 -0.8125 -1.243e-18 0.142571 -0.4375
0 0.699469 0.3125 -9.86076e-32 0.768058 0.125 -2.30523e-18 0.822198 -0.125 2.23709e-18
0.822616 0.8125 0 0.20395 -0.8125 1.00974e-28 0.204487 0.1875 3.15544e-30 0.822087
-0.1875 0 0.822743 0.75 0 0.389179 -0.75 0 0.390213 0.375
-1.57772e-30 0.759961 -0.375 0 0.761257 0.625 -3.56137e-19 0.5745 0.5625 5.79545e-20
0.63626 -0.625 3.27226e-18 0.575858 -0.5625 2.77466e-18 0.637702 0.8125 0 0.265684
-0.8125 0 0.266417 0.6875 0 0.512713 -0.6875 8.28782e-19 0.514003 0.5
0 0.698047 0.25 0 0.821997 -0.5 6.31089e-30 0.699537 -0.25 -1.344e-19
0.822881 -0.875 0 0 0.875 0 0 0.75 -2.10549e-18 0.45092
-0.875 0 0.01875 0.875 0 0.01875 -0.75 1.56797e-20 0.452151 0.8125
0 0.327419 -0.8125 -1.00974e-28 0.32834 0.4375 0 0.759871 -0.4375 -6.31089e-30
0.761365 0.875 5.04368e-19 0.0804812 -0.875 -2.51369e-18 0.080669 0.3125 0 0.821875
-0.3125 0 0.823027 2.47722e-11 -1.26218e-29 0.88424 0.0625 -1.66421e-18 0.884149 0.875
0 0.142212 0.33235 7.88861e-31 0.821834 -0.875 0 0.142591 -0.0625 2.92278e-18
0.884351 0.625 6.31089e-30 0.63625 0.125 0 0.884028 -0.625 0 0.637779
-0.125 1.26218e-29 0.88448 0.6875 0 0.574467 0.5625 6.31089e-30 0.698012 -0.6875
2.52435e-29 0.575948 -0.5625 0 0.699618 0.875 2.58384e-20 0.203944 -0.875 9.09699e-19
0.204515 0.8125 0 0.389154 -0.8125 3.37331e-18 0.390268 0.375 1.97423e-18 0.821747
0.1875 -1.85962e-18 0.8839 -0.1875 2.49188e-18 0.884624 -0.375 -1.97905e-18 0.82318 0.75
6.31089e-30 0.512662 -0.75 0 0.514078 0.5 0 0.759805 -0.5 0
0.761448 0.875 -6.31089e-30 0.265675 -0.875 0 0.266443 0.25 0 0.883795
-0.25 0 0.88478 0.8125 0 0.450889 -0.8125 0 0.452199 0.4375
3.15544e-30 0.821642 -0.4375 1.26218e-29 0.823271 0.875 -9.20802e-19 0.327407 -0.875 9.03125e-19
0.328375 0.6875 0 0.636224 0.625 -2.7446e-18 0.698 0.3125 -2.49404e-18 0.883686
-0.9375 4.03897e-28 0 0.9375 0 0 -0.9375 -1.92536e-18 0.01875 0.9375
4.53743e-19 0.01875 -0.6875 -3.21362e-18 0.637874 -0.625 1.90886e-19 0.699706 -0.3125 8.78757e-19
0.884945 0.9375 0 0.0804805 -0.9375 4.03897e-28 0.0806755 0.75 -1.26218e-29 0.574406
0.5625 1.00038e-18 0.759764 -0.75 0 0.576008 3.4849e-11 2.81091e-18 0.946078 -0.5625
-2.18181e-18 0.761541 0.0625 0 0.945974 0.9375 1.49422e-18 0.142211 -0.0625 -1.26218e-29
0.946205 -0.9375 1.98124e-18 0.142604 0.358506 3.9443e-31 0.883577 0.125 -1.04263e-18 0.945865
-0.125 2.57769e-18 0.946353 0.875 0 0.389138 -0.875 0 0.39031 0.9375
0 0.203942 -0.9375 4.03897e-28 0.204536 0.375 7.88861e-31 0.883538 0.8125 -2.70638e-18
[...]
POINT_DATA 9400
FIELD attributes 1
U 3 9400 float
20 0 0 20.1726 0.00442795 -0.00524744 20 0 0 20 0
0 20.1646 0.00433224 -0.00514064 20.1808 0.00453022 -0.00535361 20.1771 0.00465733 -0.0145557
20.1853 0.00476272 -0.0148931 20.169 0.00455419 -0.0142097 20 0 0 20
0 0 20.1568 0.00423961 -0.00503649 20.1892 0.00463501 -0.0054557 20.1775 0.00472844
-0.0257877 20.1938 0.00486903 -0.0152167 20.1612 0.00445401 -0.0138599 20 0 0
20.1858 0.00483669 -0.0263919 20.1695 0.00462094 -0.0251655 20.1934 0.00468242 -0.00550183 20
0 0 20 0 0 20.2001 0.00494298 -0.0154389 20.1493 0.0041457
-0.00493004 20.1979 0.00473315 -0.00555118 20.1944 0.00494491 -0.0269735 20.1617 0.00451651 -0.0245303
20.2026 0.00497167 -0.0155251 20.1537 0.00434948 -0.0134994 20.1773 0.00476603 -0.0372494 20.1856
0.00487895 -0.0381167 20.1692 0.00465648 -0.0363554 20.2025 0.00504205 -0.0274871 20.2031 0.00505018
-0.0275301 20.1541 0.00440798 -0.0238789 20.1941 0.00499092 -0.0389537 20.1614 0.00455121 -0.0354382
20 0 0 20 0 0 20.142 0.00405431 -0.00481862 20.2068
0.00483751 -0.0056409 20.203 0.00507345 -0.0333369 20.2115 0.00508285 -0.0158163 20.1464 0.00424861
-0.0131333 20.1764 0.00478158 -0.0487148 20.1848 0.00489806 -0.0498596 20.1684 0.00467106 -0.0475367
20.2029 0.00509917 -0.0397553 20.1538 0.00444148 -0.0345002 20.2036 0.00510799 -0.039812 20.2121
0.00516452 -0.0280559 20.1468 0.00430503 -0.0232158 20.1934 0.00501321 -0.050966 20.1605 0.00456577
-0.0463277 20 0 0 20 0 0 20.135 0.00396858 -0.00470334
20.2158 0.00494903 -0.00572431 20.2207 0.00520332 -0.0160894 20.212 0.00521689 -0.0405131 20.1394
0.00415827 -0.0127626 20.1465 0.00433636 -0.0335441 20.2022 0.00512424 -0.0520244 20.1529 0.00445507
-0.0450958 20.1747 0.00478455 -0.0603787 20.2039 0.00514707 -0.0522144 20.1831 0.00490113 -0.0618041
20.1666 0.00467217 -0.0589137 20.2213 0.00528775 -0.0285502 20.1398 0.00421396 -0.0225449 20.1918
0.00501688 -0.0631817 20.1587 0.00456457 -0.0574085 20.2113 0.00524479 -0.0530277 20.1456 0.00434772
-0.0438479 20.2212 0.0053437 -0.0412252 20.1395 0.00424254 -0.0325745 20 0 0
20 0 0 20.1282 0.00388245 -0.00458667 20.2251 0.00505571 -0.00580023 20.2007
0.00513012 -0.0645002 20.151 0.0044525 -0.0558778 20.23 0.0053169 -0.0163436 20.1325 0.00406927
-0.012385 20.2034 0.00516618 -0.0648676 20.173 0.00479465 -0.0720489 20.1814 0.00491312 -0.0737674
20.1648 0.00467944 -0.0702825 20.2307 0.0054041 -0.0290126 20.1329 0.00412462 -0.0218667 20.1902
0.00503073 -0.0754299 20.1568 0.00457003 -0.068468 20.2206 0.00537417 -0.0539712 20.1386 0.00425139
-0.0425843 20.2098 0.0052528 -0.0657501 20.1437 0.00434442 -0.0543322 20.2306 0.00546263 -0.0418909
20.1326 0.00415078 -0.0315959 20.1992 0.00514668 -0.0770229 20.1492 0.00445735 -0.0666238 20
0 0 20 0 0 20.1216 0.00379823 -0.00447218 20.2345 0.00516339
-0.00586996 20.203 0.00519793 -0.0776437 20.2396 0.0054293 -0.0165767 20.126 0.00398705 -0.0120089
20.1717 0.00482454 -0.0840749 20.2192 0.00538358 -0.0669258 20.1366 0.00424757 -0.0527684 20.1802
0.00494789 -0.0860897 20.1634 0.00470635 -0.0820037 20.23 0.00549512 -0.054853 20.1318 0.00415708
-0.0413075 20.2403 0.00551998 -0.0294362 20.1264 0.00404659 -0.021186 20.2084 0.0052714 -0.0785336
20.1418 0.00434911 -0.0647594 20.189 0.00506952 -0.0880406 20.1555 0.00459599 -0.0798788 20.2402
0.00558053 -0.0425005 20.1261 0.00406692 -0.0306093 20.198 0.00518842 -0.0899118 20.1478 0.00448261
-0.0777197 20.2288 0.00550717 -0.0680248 20.1298 0.00415326 -0.051188 20.2179 0.0054037 -0.0799555
20.1347 0.00425163 -0.0628736 20 0 0 20 0 0 20.1153
0.00372347 -0.00435921 20.2441 0.0052811 -0.00592943 20.2032 0.00525955 -0.0909033 20.2493 0.00555383
-0.0167833 20.1197 0.00391887 -0.0116328 20.2397 0.00561549 -0.0556613 20.1252 0.00406618 -0.0400228
20.1703 0.00487924 -0.0960831 20.2073 0.00531575 -0.0916867 20.1404 0.00437256 -0.0755359 20.1789
0.00500874 -0.0984151 20.1621 0.00475591 -0.0936873 20.25 0.00564756 -0.0298141 20.1201 0.00398388
-0.0205034 20.1878 0.00513424 -0.100676 20.1541 0.00464302 -0.0912336 20.25 0.00571077 -0.0430454
20.1198 0.00399912 -0.029618 20.2275 0.00552991 -0.0812853 20.1278 0.00415656 -0.0609733 20.1969
0.00525613 -0.102847 20.2385 0.00563109 -0.0690327 20.1464 0.00452774 -0.0887417 20.1232 0.00406602
-0.0495989 20.2169 0.00545093 -0.0933588 20.1333 0.00427252 -0.0733278 20 0 0
20 0 0 20.1093 0.00366061 -0.0042464 20.2539 0.00540009 -0.00597797 20.2039
0.00535366 -0.104391 20.2496 0.00574881 -0.0563877 20.1189 0.00399225 -0.0387326 20.2592 0.00568117
-0.0169633 20.1136 0.00385551 -0.0112549 20.2063 0.00538624 -0.104907 20.139 0.00441473 -0.0862249
20.1683 0.00493066 -0.108181 20.177 0.005064 -0.110848 20.16 0.00480234 -0.105441 20.2599
0.00577714 -0.0301464 20.114 0.00391918 -0.0198174 20.2374 0.0056577 -0.0825068 20.1212 0.00407131
-0.0590638 20.2267 0.00557975 -0.0949229 20.1264 0.00417439 -0.071105 20.1859 0.0051924 -0.113436
20.152 0.00468553 -0.10264 20.2485 0.00576665 -0.0699403 20.1169 0.00399655 -0.0480052 20.26
0.00584346 -0.0435246 20.1137 0.00393638 -0.0286247 20.2159 0.00552368 -0.106851 20.1319 0.00431142
-0.0836852 20.1952 0.00531803 -0.115924 20.1442 0.00456749 -0.0997973 20.2596 0.00588381 -0.0570291
20.1129 0.00393284 -0.0374442 20 0 0 20 0 0 20.1034
0.00359273 -0.0041294 20.2638 0.00551168 -0.00601864 20.2046 0.00545017 -0.118267 20.2047 0.00545138
-0.118289 20.1368 0.00445188 -0.0969281 20.2046 0.00545245 -0.118636 20.2367 0.00571072 -0.0963616
20.1198 0.00408181 -0.0688752 20.2692 0.00579915 -0.017117 20.1078 0.00378362 -0.0108786 20.2475
0.00579609 -0.083608 20.1149 0.0040045 -0.0571487 20.2258 0.00565448 -0.10867 20.1251 0.00421011
-0.0811307 20.1656 0.00496144 -0.120427 20.1743 0.0050955 -0.12345 20.1571 0.00483123 -0.117325
20.27 0.00589774 -0.0304313 20.1082 0.00384522 -0.0191312 20.1834 0.00522618 -0.126385 20.149
0.00471066 -0.114158 20.2587 0.00590268 -0.0707427 20.1108 0.00393515 -0.0464143 20.2145 0.00559049
-0.120522 20.1297 0.0043457 -0.0940367 20.2701 0.00596657 -0.0439347 20.1079 0.00386534 -0.027624
20.1928 0.00535564 -0.12921 20.1412 0.00458939 -0.110945 20.2469 0.00585307 -0.0976599 20.1135
0.00400662 -0.0666397 20.236 0.00578823 -0.110344 20.1185 0.00411095 -0.0785748 20.2698 0.00600858
-0.0575778 20.1071 0.00386489 -0.0361616 20.2024 0.00549317 -0.1319 20.2578 0.00593369 -0.0845823
20.1337 0.0044715 -0.107703 20.1088 0.00394054 -0.0552355 20.2245 0.00572336 -0.122612 20.1228
0.00424176 -0.0911302 20 0 0 20 0 0 20.0979 0.00351821
-0.00400763 20.2738 0.00562002 -0.00605019 20.205 0.00552924 -0.132543 20.2793 0.00591352 -0.017241
20.1023 0.00370857 -0.0105077 20.1627 0.00499985 -0.133033 20.1715 0.00513817 -0.136423 20.1541
0.00486615 -0.129558 20.2802 0.00601604 -0.0306632 20.1026 0.0037707 -0.0184482 20.269 0.00602905
-0.0714291 20.105 0.00386439 -0.0448379 20.2124 0.00563563 -0.13444 20.1807 0.0052722 -0.139717
20.1265 0.00436309 -0.104438 20.1459 0.00474262 -0.126015 20.2464 0.00593458 -0.111859 20.1123
0.00402771 -0.0760217 20.2804 0.00608628 -0.0442684 20.1024 0.00379214 -0.0266128 20.2574 0.00599377
-0.0988093 20.1075 0.00394293 -0.0644026 20.2348 0.00586044 -0.124538 20.1163 0.00414157 -0.0882252
20.1902 0.00540477 -0.142895 20.1381 0.00461805 -0.122426 20.2683 0.00606208 -0.0854172 20.103
0.00386756 -0.0533303 20.2802 0.00612856 -0.0580237 20.1015 0.00379104 -0.0348844 20.2227 0.00577191
-0.136819 20.1196 0.00425741 -0.10116 20.2 0.00554602 -0.145926 20.1305 0.00449688 -0.118806
20 0 0 20 0 0 20.0926 0.00345168 -0.00387623 20.2839
0.00572626 -0.00607095 20.2895 0.00602523 -0.0173331 20.097 0.00364018 -0.0101375 20.2057 0.0056284
-0.14754 20.1596 0.00505495 -0.145818 20.2569 0.00607812 -0.113204 20.2794 0.00615165 -0.0719869
20.2454 0.00600929 -0.126285 20.0994 0.00378953 -0.0432847 20.1063 0.00396237 -0.0734741 20.11
0.00405804 -0.0853284 20.1686 0.00520001 -0.149607 20.1511 0.00491506 -0.141943 20.2905 0.00613212
-0.0308391 20.0974 0.00369912 -0.0177666 20.2102 0.00569196 -0.148786 20.1233 0.00438562 -0.115164
20.1779 0.00533799 -0.153287 20.268 0.00612388 -0.0997963 20.1428 0.00478821 -0.137998 20.1017
0.00387194 -0.0621692 20.2332 0.00591182 -0.139016 20.113 0.0041579 -0.0978857 20.2907 0.00620651
-0.0445229 20.0971 0.00372574 -0.0255901 20.1875 0.00547336 -0.156844 20.1349 0.00466086 -0.134006
20.2789 0.00618662 -0.0860989 20.0975 0.00379273 -0.0514384 20.2206 0.00583067 -0.151471 20.1164
0.00427753 -0.111513 20.2906 0.00625202 -0.0583664 20.0963 0.00372683 -0.0336134 20.1975 0.00561747
-0.160243 20.1274 0.00453667 -0.129984 20.2561 0.00615377 -0.12784 20.1041 0.00398949 -0.0824432
20.2677 0.00620923 -0.114362 20.1006 0.00389204 -0.0709445 20.2439 0.00606133 -0.141011 20.1067
0.00407562 -0.0946198 20 0 0 20 0 0 20.0876 0.00338469
-0.00373055 20.294 0.00585037 -0.00608039 20.2998 0.00615499 -0.0173925 20.092 0.00357081 -0.00976643
20.29 0.00627691 -0.0724158 20.0942 0.00372035 -0.0417578 20.2071 0.00575618 -0.163243 20.2078
0.00576603 -0.163456 20.2787 0.00624839 -0.100605 20.1561 0.00510424 -0.158884 20.1202 0.00442272
-0.125946 20.0962 0.00379594 -0.0599417 20.2313 0.00597269 -0.153954 20.1651 0.00525158 -0.163097
20.3008 0.0062648 -0.0309572 20.1474 0.00496102 -0.154582 20.0924 0.00362823 -0.0170801 20.1098
0.00417381 -0.10787 20.2074 0.00577459 -0.165406 20.1745 0.00539309 -0.167193 20.1392 0.00482983
-0.150209 20.3012 0.00634565 -0.0446943 20.0921 0.0036586 -0.024542 20.1843 0.00553269 -0.171155
20.1312 0.00469939 -0.145788 20.2896 0.00631319 -0.0866254 20.0922 0.00372115 -0.0495595 20.2184
0.00590644 -0.166474 20.1133 0.00431156 -0.121903 20.2671 0.00628644 -0.129183 20.2549 0.00620674
-0.14279 20.0984 0.00391669 -0.0795854 20.1007 0.00400364 -0.0913677 20.3011 0.00639664 -0.058603
20.0912 0.00366092 -0.0323541 20.2786 0.00633392 -0.115313 20.0951 0.00381489 -0.0684418 20.2423
0.00612528 -0.156213 20.1944 0.00568055 -0.174949 20.1035 0.00408586 -0.104238 20.1237 0.00457328
-0.141341 20 0 0 20 0 0 20.2896 0.00637724 -0.10123
20.0828 0.00331098 -0.0035965 20.3042 0.00597565 -0.00607816 20.0909 0.0037268 -0.0577163 20.3007
0.00642168 -0.0727143 20.0892 0.00365153 -0.0402784 20.2293 0.00605085 -0.169269 20.1068 0.00420165
-0.117871 20.3102 0.00628686 -0.0174177 20.0873 0.00349982 -0.00942789 20.2049 0.00583227 -0.178544
20.1165 0.00445739 -0.13688 20.1519 0.0051584 -0.172213 20.161 0.00530925 -0.176881 20.3113
0.00639941 -0.0310144 20.2084 0.00587802 -0.179617 20.0877 0.00355808 -0.01637 20.1431 0.00501086
-0.167455 20.2661 0.00634232 -0.144333 20.1706 0.00545548 -0.181427 20.095 0.00392747 -0.0881411
20.1348 0.00487438 -0.162625 20.2783 0.00641345 -0.13029 20.2536 0.00627423 -0.15823 20.0929
0.00383894 -0.0767706 20.0976 0.00401133 -0.100627 20.3117 0.00648366 -0.0447779 20.0872 0.00358914
-0.0234139 20.3004 0.00645905 -0.0869932 20.0873 0.00365074 -0.0476936 20.2158 0.00597633 -0.181921
20.1805 0.00560005 -0.185827 20.1268 0.00473973 -0.157748 20.1096 0.00434456 -0.132419 20.2897
0.00646526 -0.116051 20.0899 0.00374705 -0.0659745 20.2406 0.00620793 -0.171818 20.1006 0.00410509
-0.113862 20.3117 0.00653687 -0.0587252 20.0863 0.00359083 -0.0311313 20.1908 0.00575175 -0.19005
20.1192 0.00461046 -0.15285 20.3006 0.00652667 -0.101667 20.0859 0.00365737 -0.0554757 20.227
0.00612428 -0.185054 20.1031 0.00423486 -0.127971 20.3114 0.00656341 -0.072872 20.0844 0.00358149
-0.038935 20.2776 0.00647383 -0.145611 20.265 0.00641245 -0.159985 20.2015 0.0059068 -0.194061
20 0 0 20 0 0 20.078 0.00323854 -0.00358127 20.3145
0.00609729 -0.00606301 20.0895 0.00384878 -0.0849515 20.0918 0.00393378 -0.0970428 20.112 0.00449146
-0.147942 20.3207 0.00641488 -0.0174073 20.0827 0.00343168 -0.00922286 20.2896 0.00654693 -0.131152
20.2521 0.00636124 -0.174099 20.0878 0.00376761 -0.0740119 20.1472 0.00524789 -0.185957 20.0947
0.00402568 -0.109887 20.1564 0.00540686 -0.191107 20.3218 0.00653075 -0.0310108 20.1384 0.00509118
-0.180719 20.0832 0.00348926 -0.0156379 20.2097 0.00601594 -0.196836 20.1661 0.00555784 -0.196135
20.13 0.00494807 -0.175411 20.3114 0.00660305 -0.087192 20.0827 0.0035803 -0.0458512 20.3222
0.0066144 -0.0447748 20.0825 0.00352176 -0.0221412 20.2126 0.00605506 -0.197831 20.3009 0.00661606
-0.116571 20.1051 0.00437581 -0.143036 20.0849 0.00367848 -0.0635499 20.2385 0.00628354 -0.187918
20.0969 0.0041387 -0.123554 20.1762 0.0057056 -0.201003 20.122 0.00480792 -0.170062 20.3224
0.00666643 -0.0587306 20.0814 0.00352235 -0.0300014 20.1867 0.00586022 -0.205688 20.1144 0.0046724
-0.164697 20.2768 0.00654683 -0.161449 20.0864 0.00385314 -0.0934904 20.2892 0.00661008 -0.14661
20.2639 0.006502 -0.17609 20.3117 0.00667137 -0.101906 20.0844 0.00377413 -0.0818041 20.0812
0.00358526 -0.053152 20.0891 0.00394649 -0.105953 20.2241 0.00620757 -0.201336 20.0986 0.00426529
-0.13815 20.2107 0.00611563 -0.206707 20.3222 0.00669624 -0.0728825 20.0798 0.00351309 -0.0378906
20.301 0.00669722 -0.131768 20.2503 0.00643918 -0.190487 20.1977 0.00601771 -0.210152 20.0829
0.00369695 -0.0713354 20.1072 0.00454786 -0.159329 20.091 0.00405679 -0.11918 20 0
0 20 0 0 20.0741 0.00318895 -0.00393528 20.3247 0.00622708 -0.00603636
20.3311 0.00655194 -0.0173639 20.0792 0.00337995 -0.00923638 20.1423 0.00535531 -0.20004 20.1517
0.00551953 -0.205718 20.1335 0.00519167 -0.194278 20.3323 0.00667018 -0.0309487 20.079 0.00342506
-0.0150149 20.3123 0.0067587 -0.116863 20.0801 0.00360584 -0.0611776 20.2359 0.00636969 -0.204547
20.3223 0.00673926 -0.0872159 20.1615 0.00567339 -0.211273 20.0783 0.00351138 -0.0440859 20.125
0.00504247 -0.188451 20.0924 0.00416978 -0.133307 20.209 0.00616779 -0.21435 20.1003 0.00442678
-0.153969 20.2108 0.00619115 -0.214937 20.3328 0.00675459 -0.0446855 20.079 0.00347015 -0.0210747
20.2887 0.00668746 -0.162592 20.2759 0.00663832 -0.177756 20.1717 0.00582334 -0.216655 20.117
0.00489695 -0.182586 20.0813 0.00377914 -0.0899761 20.0837 0.00386515 -0.102069 20.3009 0.00676102
-0.14733 20.2624 0.00658364 -0.192735 20.0796 0.00370121 -0.0787046 20.0855 0.00397569 -0.114855
20.3331 0.00680666 -0.0586192 20.0772 0.00346119 -0.0290032 20.1824 0.00598019 -0.221846 20.1095
0.00475509 -0.176713 20.3229 0.00680642 -0.101942 20.0765 0.00351476 -0.0506487 20.2208 0.00632333
-0.218261 20.0939 0.00430845 -0.148643 20.3126 0.00683898 -0.132123 20.248 0.00652732 -0.207435
20.0783 0.00362452 -0.0688369 20.0866 0.00408741 -0.128512 20.3331 0.00683746 -0.0727463 20.0763
0.00346189 -0.0372903 20.1936 0.00613899 -0.226805 20.1023 0.00462479 -0.170845 20 0
0 20.335 0.00634374 -0.00599778 20.3416 0.00667599 -0.0172852 20.2881 0.00678317 -0.179065
20.3237 0.00689051 -0.11692 20.0787 0.00379547 -0.0982523 20.2329 0.00648964 -0.221855 20.0753
0.00353558 -0.0588792 20.1374 0.00545368 -0.214386 20.3007 0.00684193 -0.163423 20.0878 0.00420359
-0.143373 20.2747 0.00672432 -0.194625 20.1468 0.00562019 -0.220637 20.1284 0.00528619 -0.208054
20.3428 0.00679587 -0.0308211 20.0764 0.00370646 -0.0864923 20.0802 0.00389392 -0.110594 20.3333
0.00688222 -0.0870627 20.0742 0.00345252 -0.0425804 20.2053 0.00628983 -0.231482 20.0956 0.00449875
-0.16499 20.1568 0.00577686 -0.226765 20.1199 0.00513154 -0.201661 20.3128 0.00690557 -0.147755
20.3434 0.00688309 -0.0445011 20.2605 0.00667503 -0.209973 20.0751 0.00362787 -0.0756807 20.081
0.00400509 -0.123767 20.1672 0.00593 -0.232718 20.2113 0.00636773 -0.23365 20.1119 0.00498081
-0.19524 20.3438 0.00693729 -0.0583849 20.3341 0.0069492 -0.101769 20.0729 0.00346118 -0.0485672
20.2173 0.00644646 -0.235842 20.1781 0.00608861 -0.238464 20.1044 0.00483395 -0.188817 20.3243
0.00697122 -0.132207 20.2454 0.00664932 -0.225099 20.0892 0.00437363 -0.159187 20.0738 0.00355442
-0.0667225 20.082 0.00411433 -0.138164 20.3439 0.00696767 -0.0724589 20.3005 0.00694063 -0.180023
20.2873 0.00687172 -0.19612 20.1896 0.00624821 -0.24397 20.0739 0.00372627 -0.0945148 20.0753
0.00382184 -0.106414 20.0973 0.00469854 -0.182403 20.3129 0.00698853 -0.163922 20.2732 0.00681897
-0.212117 20.0719 0.00363137 -0.0829892 20.0758 0.00392145 -0.119088 20.3351 0.00702979 -0.116735
20.2298 0.00661348 -0.239861 20.071 0.00347485 -0.0567876 20 0 0 20
0 0 20.3452 0.00645173 -0.00594728 20.0671 0.00310256 -0.0049832 20.0833 0.00425998
-0.153454 20.352 0.00678938 -0.0171694 20.3444 0.00701292 -0.0867264 20.1318 0.00553682 -0.229117
20.2015 0.0064009 -0.249179 20.3247 0.00704151 -0.147873 20.2583 0.00679644 -0.227958 20.1414
0.00570554 -0.235981 20.1228 0.00536646 -0.222175 20.3533 0.00691143 -0.0306263 20.0709 0.00355564
-0.0728413 20.0906 0.00456792 -0.176019 20.0766 0.00402738 -0.133014 20.0701 0.00329735 -0.0146625
20.1515 0.00586585 -0.242728 20.1142 0.0052066 -0.21518 20.354 0.00699918 -0.044221 20.1622
0.00602334 -0.249301 20.1061 0.00505025 -0.208166 20.2111 0.00652279 -0.252931 20.336 0.00710845
-0.132015 20.2427 0.00677214 -0.243502 20.0703 0.00350274 -0.0653805 20.3453 0.00708064 -0.101379
20.2139 0.00655878 -0.254039 20.3001 0.0070302 -0.197223 20.0777 0.00416359 -0.147798 20.3545
0.00705322 -0.058026 20.0843 0.00443884 -0.169702 20.0706 0.00375075 -0.102335 20.0686 0.00333078
-0.0274073 20.1734 0.00618515 -0.25565 20.2862 0.00696748 -0.213826 20.313 0.00708692 -0.180611
20.0985 0.00489817 -0.20116 20.0693 0.00365121 -0.0908653 20.0709 0.00384372 -0.114485 20.2714
0.00693889 -0.230389 20.3252 0.00712567 -0.16408 20.0675 0.00355692 -0.0794154 20.0714 0.00393964
-0.127936 20.3547 0.00708493 -0.0720166 20.1851 0.00634679 -0.261752 20.0914 0.00475719 -0.194169
20.3465 0.00715863 -0.116298 20.2268 0.00672359 -0.258532 20.0784 0.00432156 -0.163471 20.256
0.00691651 -0.246722 20.3367 0.00717996 -0.147678 20.0669 0.00349315 -0.0704637 20.0724 0.0040721
-0.142225 20 0 0 20.3553 0.0065527 -0.00588502 20.3624 0.00689427 -0.0170155
20.3554 0.00713131 -0.0862031 20.1974 0.00650195 -0.267545 20.0847 0.0046216 -0.187227 20.0655
0.00332711 -0.0397687 20.1255 0.00562405 -0.244325 20.1352 0.00579641 -0.251845 20.1163 0.0054488
-0.236734 20.3637 0.00701948 -0.0303647 20.1455 0.00595884 -0.259258 20.2994 0.00712596 -0.215095
20.313 0.00717873 -0.197914 20.1077 0.00528449 -0.229102 20.0662 0.00367512 -0.0984348 20.0663
0.00376751 -0.10996 20.3645 0.00710801 -0.0438468 20.2849 0.00708678 -0.232341 20.3257 0.00722346
-0.180816 20.2401 0.00687931 -0.262615 20.1564 0.00611891 -0.266502 20.3477 0.00723471 -0.131535
20.0649 0.00357803 -0.0873376 20.0666 0.00386124 -0.122939 20.0996 0.00512341 -0.221463 20.0729
0.00422148 -0.157331 20.2095 0.00665235 -0.272659 20.3566 0.00719766 -0.100769 20.2102 0.00666109
-0.272956 20.0784 0.00448893 -0.18037 20.3651 0.00716222 -0.0575429 20.1678 0.00628427 -0.273506
20.2697 0.00705613 -0.249475 20.3375 0.00726567 -0.163884 20.092 0.00496554 -0.21384 20.0641
0.00349951 -0.0765217 20.0674 0.00398096 -0.136751 20.3655 0.00719591 -0.0714191 20.1799 0.00644852
-0.280252 20.0849 0.0048192 -0.206251 20.2235 0.00682411 -0.27797 20.358 0.0072721 -0.115604
20.2539 0.00702233 -0.26624 20.3488 0.00730699 -0.147156 20.0726 0.00436883 -0.173614 20.0626
0.00334734 -0.0529642 20.0677 0.00412775 -0.151294 20.3128 0.00727588 -0.215906 20.0621 0.00368956
-0.105536 20.2986 0.00724192 -0.233798 20.3261 0.00731799 -0.198174 20.0621 0.00360153 -0.0948931
20.0621 0.00378449 -0.118014 20.3663 0.00724356 -0.0854932 20.2073 0.00672816 -0.285761 20
0 0 20 0 0 20.3654 0.00666932 -0.00580921 20.1925 0.00660468
-0.28668 20.0605 0.00301351 -0.00611303 20.0782 0.00467904 -0.198735 20.3727 0.00701288 -0.0168247
20.2836 0.00720158 -0.251704 20.1184 0.00570947 -0.259972 20.3384 0.00736366 -0.180624 20.1283
0.00588544 -0.268205 20.1092 0.00552973 -0.251679 20.061 0.00351395 -0.0841001 20.0628 0.00390172
-0.131395 20.3741 0.0071396 -0.030038 20.0634 0.00320014 -0.0147078 20.1388 0.0060497 -0.276338
20.1005 0.00536211 -0.243357 20.2373 0.006978 -0.282542 20.3594 0.00734682 -0.130759 20.0671
0.00426511 -0.166962 20.375 0.00722809 -0.0433776 20.1498 0.00621192 -0.28431 20.2057 0.00676457
-0.292711 20.0924 0.00519789 -0.235041 20.3677 0.00730831 -0.0999397 20.2059 0.00676693 -0.292792
20.268 0.00716064 -0.269356 20.3499 0.00739467 -0.163316 20.072 0.00454076 -0.191327 20.0629