# vtk DataFile Version 2.0
track0
ASCII
DATASET POLYDATA
POINTS 15780 float
-1.001 -0.05 0.0011
-1.0008 -0.05 0.0011
-1.0006 -0.05 0.0011
-1.0004 -0.05 0.0011
-1.0002 -0.05 0.0011
-1 -0.05 0.0011
-0.9875 -0.05 0.0011
-0.975 -0.05 0.0011
-0.9625 -0.05 0.0011
-0.95 -0.05 0.0011
-0.9375 -0.05 0.00109999
-0.925 -0.05 0.00109999
-0.9125 -0.05 0.00109999
-0.9 -0.05 0.00109999
-0.8875 -0.05 0.00109999
-0.875 -0.05 0.00109999
-0.8625 -0.05 0.00109999
-0.85 -0.05 0.00109999
-0.8375 -0.05 0.00109998
-0.825 -0.0500001 0.00109998
-0.8125 -0.0500001 0.00109998
-0.8 -0.0500001 0.00109998
-0.7875 -0.0500001 0.00109998
-0.775 -0.0500001 0.00109998
-0.7625 -0.0500001 0.00109998
-0.75 -0.0500001 0.00109998
-0.7375 -0.0500001 0.00109997
-0.725 -0.0500001 0.00109997
-0.7125 -0.0500001 0.00109997
-0.7 -0.0500001 0.00109997
-0.6875 -0.0500001 0.00109997
-0.675 -0.0500001 0.00109997
-0.6625 -0.0500001 0.00109997
-0.65 -0.0500001 0.00109996
-0.6375 -0.0500001 0.00109996
-0.625 -0.0500001 0.00109996
-0.6125 -0.0500001 0.00109996
-0.6 -0.0500001 0.00109996
-0.5875 -0.0500001 0.00109996
-0.575 -0.0500001 0.00109996
-0.5625 -0.0500001 0.00109996
-0.55 -0.0500001 0.00109995
-0.5375 -0.0500001 0.00109995
-0.525 -0.0500001 0.00109995
-0.5125 -0.0500001 0.00109995
-0.5 -0.0500001 0.00109995
-0.4875 -0.0500001 0.00109995
-0.475 -0.0500001 0.00109995
-0.4625 -0.0500001 0.00109994
-0.45 -0.0500002 0.00109994
-0.4375 -0.0500002 0.00109994
-0.425 -0.0500002 0.00109994
-0.4125 -0.0500002 0.00109994
-0.4 -0.0500002 0.00109994
-0.3875 -0.0500002 0.00109994
-0.375 -0.0500002 0.00109994
-0.3625 -0.0500002 0.00109993
-0.35 -0.0500002 0.00109993
-0.3375 -0.0500002 0.00109993
-0.325 -0.0500002 0.00109993
-0.3125 -0.0500002 0.00109993
-0.3 -0.0500002 0.00109993
-0.2875 -0.0500002 0.00109993
-0.275 -0.0500002 0.00109993
-0.2625 -0.0500002 0.00109992
-0.25 -0.0500002 0.00109992
-0.2375 -0.0500002 0.00109992
-0.225 -0.0500002 0.00109992
-0.2125 -0.0500002 0.00109992
-0.2 -0.0500002 0.00109992
-0.1875 -0.0500002 0.00109992
-0.175 -0.0500002 0.00109992
-0.1625 -0.0500002 0.00109991
-0.15 -0.0500002 0.00109991
-0.1375 -0.0500002 0.00109991
-0.125 -0.0500002 0.00109991
-0.1125 -0.0500002 0.00109991
-0.1 -0.0500002 0.00109991
-0.0875 -0.0500002 0.00109991
-0.075 -0.0500002 0.00109991
-0.0625 -0.0500002 0.00109991
-0.05 -0.0500003 0.00109991
-0.0375 -0.0500003 0.0010999
-0.025 -0.0500003 0.0010999
-0.0125 -0.0500003 0.0010999
2.10607e-13 -0.0500003 0.0010999
0.0125 -0.0500003 0.0010999
0.025 -0.0500003 0.0010999
0.0375 -0.0500003 0.0010999
0.05 -0.0500003 0.0010999
0.0625 -0.0500003 0.0010999
0.075 -0.0500003 0.0010999
0.0875 -0.0500003 0.0010999
0.1 -0.0500003 0.00109989
0.1125 -0.0500003 0.00109989
0.125 -0.0500003 0.00109989
0.1375 -0.0500003 0.00109989
0.15 -0.0500003 0.00109989
0.1625 -0.0500003 0.00109989
0.175 -0.0500003 0.00109989
0.1875 -0.0500003 0.00109989
0.2 -0.0500003 0.00109989
0.2125 -0.0500003 0.00109989
0.225 -0.0500003 0.00109989
0.2375 -0.0500003 0.00109989
0.25 -0.0500003 0.00109989
0.2625 -0.0500003 0.00109988
0.275 -0.0500003 0.00109988
0.2875 -0.0500003 0.00109988
0.3 -0.0500003 0.00109988
0.3125 -0.0500003 0.00109988
0.325 -0.0500003 0.00109988
0.3375 -0.0500003 0.00109988
0.35 -0.0500003 0.00109988
0.3625 -0.0500003 0.00109988
0.375 -0.0500003 0.00109988
0.3875 -0.0500003 0.00109988
0.4 -0.0500004 0.00109988
0.4125 -0.0500004 0.00109988
0.425 -0.0500004 0.00109988
0.4375 -0.0500004 0.00109988
0.45 -0.0500004 0.00109988
0.4625 -0.0500004 0.00109988
0.475 -0.0500004 0.00109988
0.4875 -0.0500004 0.00109988
0.5 -0.0500004 0.00109988
0.5125 -0.0500004 0.00109988
0.525 -0.0500004 0.00109988
0.5375 -0.0500004 0.00109988
0.55 -0.0500004 0.00109988
0.5625 -0.0500004 0.00109988
0.575 -0.0500004 0.00109987
0.5875 -0.0500004 0.00109987
0.6 -0.0500004 0.00109987
0.6125 -0.0500004 0.00109987
0.625 -0.0500004 0.00109987
0.6375 -0.0500004 0.00109987
0.65 -0.0500004 0.00109987
0.6625 -0.0500004 0.00109987
0.675 -0.0500004 0.00109987
0.6875 -0.0500004 0.00109987
0.7 -0.0500004 0.00109987
0.7125 -0.0500004 0.00109987
0.725 -0.0500004 0.00109987
0.7375 -0.0500004 0.00109987
0.75 -0.0500004 0.00109987
0.7625 -0.0500004 0.00109987
0.775 -0.0500004 0.00109987
0.7875 -0.0500004 0.00109987
0.8 -0.0500004 0.00109987
0.8125 -0.0500004 0.00109987
0.825 -0.0500004 0.00109987
0.8375 -0.0500004 0.00109987
0.85 -0.0500004 0.00109987
0.8625 -0.0500004 0.00109987
0.875 -0.0500004 0.00109987
0.8875 -0.0500004 0.00109987
0.9 -0.0500004 0.00109987
0.9125 -0.0500005 0.00109988
0.925 -0.0500005 0.00109988
0.9375 -0.0500005 0.00109988
0.95 -0.0500005 0.00109988
0.9625 -0.0500005 0.00109988
0.975 -0.0500005 0.00109988
0.9875 -0.0500005 0.00109988
1 -0.0500005 0.00109988
1.0125 -0.0500005 0.00109988
1.025 -0.0500005 0.00109988
1.0375 -0.0500005 0.00109988
1.05 -0.0500005 0.00109988
1.0625 -0.0500005 0.00109988
1.075 -0.0500005 0.00109988
1.0875 -0.0500005 0.00109988
1.1 -0.0500005 0.00109988
1.1125 -0.0500005 0.00109988
1.125 -0.0500005 0.00109988
1.1375 -0.0500005 0.00109988
1.15 -0.0500005 0.00109988
1.1625 -0.0500005 0.00109988
1.175 -0.0500005 0.00109988
1.1875 -0.0500005 0.00109988
1.2 -0.0500005 0.00109988
1.2125 -0.0500005 0.00109988
1.225 -0.0500005 0.00109988
1.2375 -0.0500005 0.00109989
1.25 -0.0500005 0.00109989
1.2625 -0.0500005 0.00109989
1.275 -0.0500005 0.00109989
1.2875 -0.0500005 0.00109989
1.3 -0.0500005 0.00109989
1.3125 -0.0500005 0.00109989
1.325 -0.0500005 0.00109989
1.3375 -0.0500005 0.00109989
1.35 -0.0500005 0.00109989
1.3625 -0.0500005 0.00109989
1.375 -0.0500005 0.00109989
1.3875 -0.0500005 0.00109989
1.4 -0.0500005 0.00109989
1.4125 -0.0500005 0.00109989
1.425 -0.0500005 0.00109989
1.4375 -0.0500005 0.0010999
1.45 -0.0500005 0.0010999
1.4625 -0.0500005 0.0010999
1.475 -0.0500005 0.0010999
1.4875 -0.0500005 0.0010999
1.5 -0.0500006 0.0010999
1.5125 -0.0500006 0.0010999
1.525 -0.0500006 0.0010999
1.5375 -0.0500006 0.0010999
1.55 -0.0500006 0.0010999
1.5625 -0.0500006 0.0010999
1.575 -0.0500006 0.0010999
1.5875 -0.0500006 0.0010999
1.6 -0.0500006 0.0010999
1.6125 -0.0500006 0.00109991
1.625 -0.0500006 0.00109991
1.6375 -0.0500006 0.00109991
1.65 -0.0500006 0.00109991
1.6625 -0.0500006 0.00109991
1.675 -0.0500006 0.00109991
1.6875 -0.0500006 0.00109991
1.7 -0.0500006 0.00109991
1.7125 -0.0500006 0.00109991
1.725 -0.0500006 0.00109991
1.7375 -0.0500006 0.00109991
1.75 -0.0500006 0.00109991
1.7625 -0.0500006 0.00109992
1.775 -0.0500006 0.00109992
1.7875 -0.0500006 0.00109992
1.8 -0.0500006 0.00109992
1.8125 -0.0500006 0.00109992
1.825 -0.0500006 0.00109992
1.8375 -0.0500006 0.00109992
1.85 -0.0500006 0.00109992
1.8625 -0.0500006 0.00109992
1.875 -0.0500006 0.00109992
1.8875 -0.0500006 0.00109992
1.9 -0.0500006 0.00109992
1.9125 -0.0500006 0.00109993
1.925 -0.0500006 0.00109993
1.9375 -0.0500006 0.00109993
1.95 -0.0500006 0.00109993
1.9625 -0.0500006 0.00109993
1.975 -0.0500006 0.00109993
1.9875 -0.0500006 0.00109993
2 -0.0500006 0.00109993
2.0125 -0.0500006 0.00109993
2.025 -0.0500006 0.00109993
2.0375 -0.0500006 0.00109993
2.05 -0.0500006 0.00109993
2.0625 -0.0500006 0.00109993
2.075 -0.0500006 0.00109994
2.0875 -0.0500006 0.00109994
2.1 -0.0500006 0.00109994
2.1125 -0.0500006 0.00109994
2.125 -0.0500006 0.00109994
2.1375 -0.0500006 0.00109994
2.15 -0.0500006 0.00109994
2.1625 -0.0500006 0.00109994
2.175 -0.0500007 0.00109994
2.1875 -0.0500007 0.00109994
2.2 -0.0500007 0.00109994
2.2125 -0.0500007 0.00109994
2.225 -0.0500007 0.00109995
2.2375 -0.0500007 0.00109995
2.25 -0.0500007 0.00109995
2.2625 -0.0500007 0.00109995
2.275 -0.0500007 0.00109995
2.2875 -0.0500007 0.00109995
2.3 -0.0500007 0.00109995
2.3125 -0.0500007 0.00109995
2.325 -0.0500007 0.00109995
2.3375 -0.0500007 0.00109995
2.35 -0.0500007 0.00109995
2.3625 -0.0500007 0.00109995
2.375 -0.0500007 0.00109995
2.3875 -0.0500007 0.00109996
2.4 -0.0500007 0.00109996
2.4125 -0.0500007 0.00109996
2.425 -0.0500007 0.00109996
2.4375 -0.0500007 0.00109996
2.45 -0.0500007 0.00109996
2.4625 -0.0500007 0.00109996
2.475 -0.0500007 0.00109996
2.4875 -0.0500007 0.00109996
2.5 -0.0500007 0.00109996
2.5125 -0.0500007 0.00109996
2.525 -0.0500007 0.00109996
2.5375 -0.0500007 0.00109996
2.55 -0.0500007 0.00109996
2.5625 -0.0500007 0.00109997
2.575 -0.0500007 0.00109997
2.5875 -0.0500007 0.00109997
2.6 -0.0500007 0.00109997
2.6125 -0.0500007 0.00109997
2.625 -0.0500007 0.00109997
2.6375 -0.0500007 0.00109997
2.65 -0.0500007 0.00109997
2.6625 -0.0500007 0.00109997
2.675 -0.0500007 0.00109997
2.6875 -0.0500007 0.00109997
2.7 -0.0500007 0.00109997
2.7125 -0.0500007 0.00109997
2.725 -0.0500007 0.00109997
2.7375 -0.0500007 0.00109997
2.75 -0.0500007 0.00109997
2.7625 -0.0500007 0.00109998
2.775 -0.0500007 0.00109998
2.7875 -0.0500007 0.00109998
2.8 -0.0500007 0.00109998
2.8125 -0.0500007 0.00109998
2.825 -0.0500007 0.00109998
2.8375 -0.0500007 0.00109998
2.85 -0.0500007 0.00109998
2.8625 -0.0500008 0.00109998
2.875 -0.0500008 0.00109998
2.8875 -0.0500008 0.00109998
2.9 -0.0500008 0.00109998
2.9125 -0.0500008 0.00109998
2.925 -0.0500008 0.00109998
2.9375 -0.0500008 0.00109998
2.95 -0.0500008 0.00109998
2.9625 -0.0500008 0.00109998
2.975 -0.0500008 0.00109998
2.9875 -0.0500008 0.00109998
3 -0.0500008 0.00109998
3.0125 -0.0500008 0.00109999
3.025 -0.0500008 0.00109999
3.0375 -0.0500008 0.00109999
3.05 -0.0500008 0.00109999
3.0625 -0.0500008 0.00109999
3.075 -0.0500008 0.00109999
3.0875 -0.0500008 0.00109999
3.1 -0.0500008 0.00109999
3.1125 -0.0500008 0.00109999
3.125 -0.0500008 0.00109999
3.1375 -0.0500008 0.00109999
3.15 -0.0500008 0.00109999
3.1625 -0.0500008 0.00109999
3.175 -0.0500008 0.00109999
3.1875 -0.0500008 0.00109999
3.2 -0.0500008 0.00109999
3.2125 -0.0500008 0.00109999
3.225 -0.0500008 0.00109999
3.2375 -0.0500008 0.00109999
3.25 -0.0500008 0.00109999
3.2625 -0.0500008 0.00109999
3.275 -0.0500008 0.00109999
3.2875 -0.0500008 0.00109999
3.3 -0.0500008 0.00109999
3.3125 -0.0500008 0.00109999
3.325 -0.0500008 0.00109999
3.3375 -0.0500008 0.00109999
3.35 -0.0500008 0.0011
3.3625 -0.0500008 0.0011
[...]
POINT_DATA 15780
 FIELD attributes 2
p 1 15780 float
-0.0310978 -0.0311139 -0.0311299 -0.0311459 -0.031162 -0.031178 -0.0321095 -0.0330332 -0.033957 -0.0348807 -0.0359011 -0.036965 -0.0380313 -0.0390977 -0.0401641 -0.0411837 -0.0421672 -0.043132 -0.0440968 -0.0450616 -0.0459747 -0.0468726 -0.0477751 -0.0486777 -0.0495802 -0.0504769 -0.0513775 -0.052279 -0.0531805 -0.054082 -0.0549829 -0.0558904 -0.0567983 -0.0577063 -0.0586142 -0.0595217 -0.0604213 -0.0613188 -0.0622163 -0.0631138 -0.0640084 -0.0648874 -0.0657646 -0.0666417 -0.0675189 -0.0683939 -0.0692513 -0.0701066 -0.0709619 -0.0718172 -0.0726706 -0.0735052 -0.0743373 -0.0751693 -0.0760014 -0.0768311 -0.0776393 -0.0784445 -0.0792497 -0.0800548 -0.0808571 -0.0816353 -0.0824095 -0.0831838 -0.0839581 -0.0847287 -0.0854729 -0.0862128 -0.0869528 -0.0876927 -0.0884288 -0.0891361 -0.0898387 -0.0905412 -0.0912438 -0.0919417 -0.092609 -0.0932712 -0.0939334 -0.0945955 -0.0952527 -0.0958771 -0.096496 -0.0971148 -0.0977337 -0.098347 -0.0989259 -0.0994991 -0.100072 -0.100646 -0.101213 -0.101745 -0.102272 -0.102798 -0.103324 -0.103844 -0.104329 -0.104806 -0.105284 -0.105762 -0.106233 -0.106667 -0.107094 -0.107521 -0.107947 -0.108367 -0.108747 -0.10912 -0.109493 -0.109866 -0.110231 -0.110556 -0.110873 -0.11119 -0.111507 -0.111816 -0.112084 -0.112344 -0.112604 -0.112865 -0.113117 -0.113327 -0.11353 -0.113733 -0.113935 -0.11413 -0.114282 -0.114426 -0.114571 -0.114715 -0.11485 -0.114943 -0.115029 -0.115114 -0.1152 -0.115277 -0.115313 -0.115342 -0.115371 -0.1154 -0.115421 -0.115403 -0.115377 -0.115352 -0.115327 -0.115294 -0.115223 -0.115146 -0.115068 -0.11499 -0.114905 -0.114783 -0.114653 -0.114524 -0.114394 -0.114257 -0.114083 -0.113902 -0.113721 -0.11354 -0.113351 -0.113128 -0.112897 -0.112667 -0.112436 -0.112199 -0.111928 -0.111651 -0.111375 -0.111098 -0.110814 -0.1105 -0.110179 -0.109859 -0.109538 -0.109211 -0.108854 -0.108492 -0.108129 -0.107767 -0.107398 -0.107001 -0.106599 -0.106197 -0.105796 -0.105388 -0.104955 -0.104516 -0.104078 -0.10364 -0.103196 -0.102729 -0.102259 -0.101789 -0.101318 -0.100843 -0.100349 -0.0998509 -0.0993528 -0.0988548 -0.0983526 -0.0978337 -0.0973113 -0.0967889 -0.0962664 -0.0957402 -0.0951992 -0.0946548 -0.0941105 -0.0935661 -0.093018 -0.0924571 -0.0918933 -0.0913295 -0.0907658 -0.0901988 -0.0896212 -0.089041 -0.0884608 -0.0878806 -0.0872975 -0.086706 -0.0861126 -0.0855192 -0.0849258 -0.0843302 -0.0837283 -0.0831248 -0.0825213 -0.0819177 -0.0813122 -0.0807025 -0.0800917 -0.0794809 -0.0788701 -0.0782578 -0.0776434 -0.077028 -0.0764126 -0.0757972 -0.0751805 -0.0745635 -0.0739461 -0.0733287 -0.0727113 -0.0720931 -0.0714764 -0.0708594 -0.0702424 -0.0696254 -0.0690079 -0.0683933 -0.067779 -0.0671646 -0.0665503 -0.0659359 -0.0653259 -0.0647162 -0.0641065 -0.0634968 -0.0628872 -0.0622832 -0.06168 -0.0610768 -0.0604736 -0.0598709 -0.059275 -0.05868 -0.058085 -0.05749 -0.0568956 -0.0563091 -0.0557238 -0.0551386 -0.0545533 -0.0539691 -0.0533936 -0.0528195 -0.0522454 -0.0516713 -0.0510982 -0.0505349 -0.0499731 -0.0494113 -0.0488495 -0.0482892 -0.0477392 -0.0471908 -0.0466425 -0.0460941 -0.0455473 -0.0450113 -0.0444773 -0.0439432 -0.0434092 -0.0428769 -0.042356 -0.0418371 -0.0413182 -0.0407992 -0.0402821 -0.0397767 -0.0392735 -0.0387703 -0.0382671 -0.0377659 -0.0372768 -0.0367899 -0.0363029 -0.0358159 -0.035331 -0.0348583 -0.034388 -0.0339176 -0.0334473 -0.0329791 -0.0325234 -0.0320699 -0.0316164 -0.031163 -0.0307117 -0.0302729 -0.0298365 -0.0294001 -0.0289636 -0.0285296 -0.0281079 -0.0276885 -0.0272692 -0.0268499 -0.0264329 -0.0260283 -0.025626 -0.0252238 -0.0248216 -0.0244217 -0.0240342 -0.0236491 -0.023264 -0.0228789 -0.0224962 -0.0221258 -0.0217579 -0.02139 -0.0210221 -0.0206567 -0.0203035 -0.0199528 -0.019602 -0.0192513 -0.0189029 -0.0185662 -0.0182322 -0.0178982 -0.0175642 -0.0172326 -0.0169123 -0.0165944 -0.0162765 -0.0159586 -0.0156431 -0.0153386 -0.0150363 -0.0147339 -0.0144316 -0.0141318 -0.0138425 -0.0135554 -0.0132684 -0.0129813 -0.0126968 -0.0124225 -0.0121504 -0.0118783 -0.0116062 -0.0113364 -0.0110767 -0.0108193 -0.0105618 -0.0103044 -0.0100492 -0.00980388 -0.00956072 -0.00931757 -0.00907441 -0.00883346 -0.00860198 -0.00837255 -0.00814312 -0.00791368 -0.00768634 -0.00746798 -0.00725173 -0.00703549 -0.00681924 -0.00660507 -0.00639955 -0.00619605 -0.00599255 -0.00578906 -0.00558756 -0.00539434 -0.00520323 -0.00501211 -0.004821 -0.00463199 -0.00445095 -0.00427202 -0.00409308 -0.00391415 -0.00373727 -0.00356803 -0.00340085 -0.00323368 -0.0030665 -0.00290136 -0.00274331 -0.00258714 -0.00243097 -0.00227479 -0.00212065 -0.00197314 -0.00182716 -0.00168118 -0.0015352 -0.001391 -0.00125304 -0.00111668 -0.000980327 -0.00084397 -0.000709387 -0.000580714 -0.000453649 -0.000326585 -0.000199521 -7.41016e-05 4.55656e-05 0.000163617 0.000281669 0.000399721 0.000516154 0.00062714 0.000736539 0.000845939 0.000955339 0.00106312 0.00116585 0.00126704 0.00136823 0.00146942 0.00156902 0.0016639 0.00175734 0.00185077 0.0019442 0.00203612 0.00212366 0.00220976 0.00229587 0.00238197 0.0024666 0.0025471 0.00262628 0.00270545 0.00278462 0.0028624 0.00293633 0.00300896 0.00308158 0.00315421 0.00322544 0.00329313 0.00335959 0.00342604 0.00349249 0.00355764 0.00361949 0.00368013 0.00374077 0.0038014 0.00386076 0.00391708 0.00397226 0.00402744 0.00408262 0.00413658 0.00418778 0.00423784 0.00428789 0.00433795 0.0043868 0.00443311 0.00447834 0.00452357 0.00456881 0.00461291 0.00465468 0.00469538 0.00473609 0.00477679 0.00481638 0.00485383 0.0048903 0.00492677 0.00496324 0.00499865 0.00503215 0.00506466 0.00509717 0.00512968 0.00516114 0.00519088 0.00521969 0.0052485 0.00527732 0.00530516 0.00533144 0.0053568 0.00538217 0.00540754 0.00543194 0.00545495 0.00547711 0.00549927 0.00552143 0.00554268 0.00556271 0.0055819 0.00560109 0.00562027 0.00563856 0.00565578 0.00567222 0.00568866 0.00570509 0.00572069 0.00573536 0.00574926 0.00576315 0.00577704 0.0057901 0.00580237 0.00581391 0.00582545 0.00583699 0.00584777 0.00585787 0.00586725 0.00587663 0.00588601 0.00589461 0.00590268 0.00591007 0.00591747 0.00592486 0.00593154 0.00593778 0.00594336 0.00594894 0.00595451 0.00595937 0.00596391 0.00596783 0.00597175 0.00597567 0.00597891 0.00598196 0.00598437 0.00598678 0.00598919 0.00599093 0.00599256 0.00599361 0.00599465 0.00599569 0.00599611 0.0059965 0.00599631 0.00599611 0.00599591 0.00599509 0.00599432 0.00599302 0.00599171 0.00599041 0.00598852 0.00598678 0.00598449 0.0059822 0.00597991 0.00597704 0.00597439 0.00597122 0.00596805 0.00596488 0.00596117 0.00595774 0.0059538 0.00594985 0.00594591 0.00594142 0.0059373 0.00593269 0.00592808 0.00592347 0.00591835 0.00591366 0.00590849 0.00590331 0.00589814 0.00589245 0.00588727 0.00588162 0.00587597 0.00587033 0.0058642 0.00585863 0.0058526 0.00584657 0.00584054 0.00583403 0.00582814 0.00582181 0.00581548 0.00580915 0.00580237 0.00579626 0.00578971 0.00578316 0.00577662 0.00576961 0.00576335 0.00575666 0.00574997 0.00574328 0.00573616 0.00572982 0.00572307 0.00571631 0.00570956 0.00570237 0.00569603 0.00568927 0.00568252 0.00567577 0.0056686 0.00566233 0.00565565 0.00564897 0.00564229 0.0056352 0.00562905 0.00562251 0.00561597 0.00560942 0.00560248 0.00559653 0.00559018 0.00558384 0.0055775 0.00557077 0.00556507 0.00555898 0.0055529 0.00554681 0.00554034 0.00553495 0.00552918 0.00552341 0.00551764 0.00551149 0.00550646 0.00550105 0.00549564 0.00549023 0.00548445 0.00547981 0.0054748 0.00546979 0.00546479 0.00545941 0.00545522 0.00545063 0.00544605 0.00544146 0.0054365 0.00543272 0.00542856 0.00542439 0.00542023 0.0054157 0.00541231 0.0054085 0.00540469 0.00540088 0.00539668 0.00539349 0.00538985 0.00538621 0.00538257 0.00537851 0.0053751 0.00537119 0.00536728 0.00536337 0.00535897 0.00535407 0.00534835 0.00534263 0.00533691 0.0053304 0.00532163 0.00531242 0.00530322 0.00529402 0.00528432 0.0052582 0.00522656 0.00519491 0.00516326 0.00512673 0.00511525 0.00511791 0.00512057 0.00512323 0.00514885 0.00523246 0.00530851 0.00538788 0.00545085 0.00549648 0.00548945 0.00548563 0.0054818 0.00547799 0.00547647 0.00550335 0.00553104 0.00555873 0.00557841 0.00559938 0.00561331 0.00563217 0.00565105 0.00566993 0.00568427 0.00574715 0.00581217 0.00587718 0.0059422 0.00599871 0.00609015 0.00616626 0.00624237 0.00631848 0.00632363 0.00630899 0.00628961 0.00627023 0.00625085 0.00624097 0.00604011 0.00581855 0.00559698 0.00537541 0.00504803 0.00456803 0.00407414 0.00358024 0.00308635 0.00262225 0.00235247 0.00207515 0.00179783 0.00152051 0.00127316 0.00117454 0.00106949 0.00096445 0.000859405 0.000773738 0.000667802 0.00055631 0.000444817 0.000333324 0.000255315
-0.0319472 -0.0319663 -0.0319854 -0.0320045 -0.0320236 -0.0320427 -0.0327436 -0.0336212 -0.0344039 -0.0351663 -0.0362246 -0.0372613 -0.0382517 -0.0392541 -0.0403135 -0.0412975 -0.0422587 -0.0432247 -0.0441653 -0.0451005 -0.0460065 -0.0469045 -0.0478106 -0.0487165 -0.0496217 -0.0505267 -0.0514184 -0.0523222 -0.0532308 -0.0541406 -0.0550609 -0.0559661 -0.0568783 -0.05779 -0.0586995 -0.0596146 -0.0605159 -0.0614143 -0.0623139 -0.0632137 -0.0641099 -0.0649909 -0.0658709 -0.0667505 -0.0676281 -0.068504 -0.0693622 -0.0702179 -0.0710761 -0.0719348 -0.0727914 -0.0736254 -0.0744608 -0.0752956 -0.076128 -0.0769616 -0.0777689 -0.0785743 -0.079382 -0.0801902 -0.080997 -0.0817726 -0.0825498 -0.0833265 -0.0841009 -0.0848768 -0.0856176 -0.0863577 -0.0870999 -0.0878427 -0.088585 -0.0892874 -0.0899926 -0.0906973 -0.0913999 -0.0921054 -0.0927667 -0.0934288 -0.094093 -0.0947576 -0.0954235 -0.0960403 -0.0966614 -0.0972821 -0.0979008 -0.0985236 -0.0990926 -0.0996656 -0.10024 -0.100815 -0.101395 -0.101914 -0.102441 -0.102969 -0.103495 -0.10403 -0.104502 -0.104979 -0.105458 -0.105936 -0.106421 -0.106844 -0.10727 -0.107697 -0.108124 -0.108555 -0.108925 -0.109298 -0.10967 -0.110043 -0.110418 -0.110733 -0.111049 -0.111366 -0.111683 -0.112001 -0.11226 -0.112521 -0.11278 -0.113039 -0.113299 -0.113502 -0.113704 -0.113906 -0.114108 -0.11431 -0.114455 -0.114599 -0.114742 -0.114886 -0.115029 -0.115112 -0.115197 -0.115283 -0.115368 -0.115455 -0.115479 -0.115508 -0.115537 -0.115566 -0.115599 -0.115567 -0.11554 -0.115515 -0.115489 -0.115469 -0.115385 -0.115307 -0.115228 -0.115148 -0.115075 -0.114939 -0.114806 -0.114673 -0.114543 -0.114416 -0.114229 -0.114047 -0.113863 -0.113679 -0.113499 -0.113263 -0.113029 -0.112795 -0.112564 -0.112335 -0.112053 -0.111776 -0.111496 -0.111215 -0.110939 -0.110614 -0.11029 -0.109966 -0.109645 -0.109324 -0.108959 -0.108596 -0.108231 -0.107866 -0.107502 -0.107099 -0.106695 -0.106291 -0.105889 -0.105486 -0.105046 -0.104607 -0.104167 -0.103727 -0.103288 -0.102812 -0.102339 -0.101866 -0.101395 -0.100927 -0.100422 -0.0999231 -0.099422 -0.0989203 -0.0984253 -0.0978962 -0.09737 -0.0968443 -0.0963214 -0.0958011 -0.0952515 -0.0947068 -0.0941594 -0.0936115 -0.0930684 -0.0924999 -0.0919328 -0.0913663 -0.0908022 -0.0902391 -0.0896545 -0.0890739 -0.0884911 -0.0879078 -0.0873283 -0.0867305 -0.0861341 -0.0855382 -0.0849444 -0.0843518 -0.0837441 -0.0831402 -0.0825343 -0.0819279 -0.0813251 -0.0807103 -0.0800967 -0.0794836 -0.0788725 -0.0782624 -0.0776432 -0.0770275 -0.07641 -0.075792 -0.0751773 -0.0745563 -0.0739365 -0.073317 -0.0726994 -0.0720826 -0.0714622 -0.070845 -0.0702262 -0.069607 -0.0689908 -0.0683733 -0.067757 -0.067141 -0.0665265 -0.0659129 -0.0653003 -0.0646904 -0.0640792 -0.0634677 -0.0628588 -0.0622528 -0.0616479 -0.0610433 -0.0604399 -0.0598375 -0.0592399 -0.0586447 -0.0580485 -0.0574519 -0.0568578 -0.05627 -0.0556834 -0.0550971 -0.0545117 -0.0539273 -0.0533509 -0.0527767 -0.0522016 -0.0516263 -0.051053 -0.0504891 -0.0499263 -0.0493637 -0.0488019 -0.048241 -0.0476907 -0.0471423 -0.0465932 -0.046044 -0.0454965 -0.0449607 -0.0444259 -0.0438913 -0.0433572 -0.0428241 -0.0423035 -0.0417846 -0.0412651 -0.0407456 -0.0402276 -0.0397229 -0.0392192 -0.0387157 -0.0382124 -0.0377101 -0.0372218 -0.0367349 -0.0362476 -0.0357603 -0.0352742 -0.0348027 -0.0343321 -0.0338616 -0.0333912 -0.0329218 -0.0324672 -0.0320138 -0.0315602 -0.0311067 -0.0306541 -0.0302167 -0.0297803 -0.0293439 -0.0289075 -0.028472 -0.0280518 -0.0276325 -0.0272133 -0.0267941 -0.0263757 -0.0259727 -0.0255707 -0.0251686 -0.0247664 -0.0243651 -0.0239791 -0.0235941 -0.0232091 -0.0228241 -0.0224402 -0.0220711 -0.0217035 -0.0213359 -0.020968 -0.0206014 -0.0202494 -0.0198988 -0.0195483 -0.0191978 -0.0188485 -0.0185131 -0.0181791 -0.0178452 -0.0175113 -0.0171786 -0.01686 -0.0165422 -0.0162245 -0.0159068 -0.0155901 -0.0152876 -0.0149856 -0.0146836 -0.0143814 -0.0140797 -0.0137932 -0.0135062 -0.0132195 -0.0129329 -0.012646 -0.0123746 -0.012103 -0.0118313 -0.0115592 -0.011287 -0.01103 -0.0107726 -0.0105155 -0.0102585 -0.0100011 -0.00975827 -0.00951557 -0.0092728 -0.00902969 -0.00878678 -0.00855779 -0.00832845 -0.0080995 -0.00787065 -0.0076413 -0.00742562 -0.0072101 -0.00699447 -0.00677835 -0.00656248 -0.00635939 -0.006156 -0.00595314 -0.00575039 -0.00554735 -0.00535637 -0.005166 -0.00497552 -0.00478449 -0.00459401 -0.00441486 -0.00423598 -0.00405751 -0.00387912 -0.0037011 -0.0035331 -0.00336615 -0.00319917 -0.00303203 -0.0028657 -0.00270908 -0.00255298 -0.00239697 -0.00224099 -0.00208566 -0.00193996 -0.00179439 -0.00164876 -0.00150289 -0.00135733 -0.00122191 -0.00108569 -0.000949842 -0.000814084 -0.000677564 -0.000551601 -0.000425201 -0.0002987 -0.000171748 -4.45073e-05 7.2763e-05 0.000190729 0.000308256 0.000425685 0.000543851 0.000652667 0.000761519 0.000870458 0.000979789 0.00108914 0.00118985 0.00129097 0.00139174 0.00149244 0.00159351 0.00168651 0.00177947 0.0018725 0.00196587 0.00205917 0.00214483 0.00223086 0.00231658 0.00240223 0.00248819 0.00256694 0.00264565 0.00272443 0.00280353 0.00288258 0.00295474 0.0030273 0.00309953 0.00317169 0.00324418 0.00331024 0.00337625 0.00344233 0.00350872 0.00357503 0.00363528 0.00369586 0.00375616 0.0038164 0.00387691 0.0039317 0.00398653 0.00404142 0.00409654 0.00415168 0.00420129 0.00425129 0.00430105 0.00435076 0.00440078 0.00444557 0.00449044 0.00453538 0.00458055 0.0046258 0.00466602 0.00470667 0.00474708 0.00478743 0.00482815 0.00486415 0.00490028 0.00493647 0.00497289 0.00500942 0.00504143 0.00507389 0.00510612 0.00513831 0.00517089 0.00519922 0.00522772 0.00525628 0.00528504 0.00531398 0.00533883 0.00536415 0.00538927 0.00541435 0.00543983 0.0054615 0.00548338 0.00550531 0.00552743 0.00554974 0.00556841 0.00558756 0.00560652 0.00562544 0.00564478 0.00566071 0.00567689 0.00569311 0.0057095 0.00572613 0.00573949 0.00575334 0.00576703 0.00578067 0.00579475 0.00580578 0.00581709 0.00582843 0.00583994 0.00585172 0.00586055 0.00586989 0.00587908 0.00588824 0.00589785 0.00590472 0.0059119 0.00591911 0.00592647 0.00593414 0.00593915 0.0059447 0.0059501 0.00595548 0.00596133 0.0059647 0.00596843 0.00597219 0.00597608 0.00598031 0.00598214 0.00598453 0.00598679 0.00598902 0.00599175 0.00599224 0.00599311 0.00599401 0.00599503 0.00599641 0.00599563 0.0059954 0.00599507 0.00599471 0.00599486 0.00599297 0.00599152 0.00599008 0.00598875 0.00598784 0.00598497 0.00598266 0.00598025 0.00597781 0.00597589 0.00597216 0.00596885 0.00596555 0.00596237 0.00595958 0.00595507 0.0059511 0.00594705 0.00594297 0.00593941 0.00593424 0.00592951 0.0059248 0.00592017 0.00591598 0.00591022 0.00590503 0.00589976 0.00589447 0.00588971 0.0058835 0.00587775 0.00587201 0.00586635 0.00586114 0.00585453 0.00584849 0.00584237 0.00583624 0.00583065 0.00582375 0.00581733 0.00581092 0.00580458 0.00579871 0.00579158 0.00578501 0.00577839 0.00577176 0.00576567 0.00575841 0.00575164 0.00574489 0.00573818 0.00573198 0.00572463 0.00571787 0.00571105 0.00570422 0.00569795 0.00569062 0.00568381 0.005677 0.00567024 0.00566399 0.00565672 0.00565003 0.0056433 0.00563656 0.00563038 0.00562326 0.00561666 0.00561008 0.00560353 0.00559752 0.00559057 0.00558422 0.00557784 0.00557145 0.00556564 0.00555897 0.00555285 0.00554673 0.00554064 0.00553511 0.00552874 0.00552296 0.00551716 0.00551137 0.00550616 0.00550016 0.00549474 0.00548932 0.0054839 0.00547909 0.00547347 0.00546846 0.00546346 0.00545845 0.00545406 0.00544889 0.00544434 0.00543979 0.00543521 0.00543128 0.00542652 0.00542236 0.00541828 0.00541422 0.00541076 0.00540639 0.0054028 0.00539918 0.00539539 0.00539242 0.00538825 0.00538467 0.00538144 0.00537829 0.00537573 0.00537141 0.0053686 0.0053656 0.00536183 0.00535956 0.00535423 0.00534898 0.00534599 0.00534354 0.0053411 0.00533207 0.00533033 0.00532742 0.00531948 0.00531845 0.00530413 0.00527956 0.00527506 0.00527528 0.00526455 0.00522166 0.00523323 0.0052436 0.00524888 0.00531699 0.00541046 0.00547403 0.00553761 0.00557559 0.00552929 0.00551008 0.00550304 0.005496 0.00548851 0.00549251 0.00551006 0.00552823 0.0055464 0.00555811 0.00556938 0.00557043 0.00557148 0.00557254 0.00557346 0.00557416 0.00559899 0.00562795 0.00565699 0.00568603 0.00565942 0.00569757 0.00576022 0.00582324 0.00588626 0.00596625 0.00618053 0.00626955 0.00635201 0.00642812 0.0063212 0.00635707 0.00633769 0.00632123 0.00631178 0.0062564 0.00620985 0.00598828 0.00576672 0.00553257 0.00503896 0.00469934 0.00420544 0.00371155 0.00321498 0.00259617 0.00241453 0.00213721 0.00185989 0.00158257 0.00124275 0.00122364 0.00111859 0.00101355 0.000908503 0.000751307 0.000715291 0.0006038 0.000492309 0.000380818 0.000206787