# vtk DataFile Version 2.0
track0
ASCII
DATASET POLYDATA
POINTS 15780 float
-1.001 -0.05 0.0011
-1.0008 -0.05 0.0011
-1.0006 -0.05 0.0011
-1.0004 -0.05 0.0011
-1.0002 -0.05 0.0011
-1 -0.05 0.0011
-0.9875 -0.05 0.0011
-0.975 -0.05 0.0011
-0.9625 -0.05 0.0011
-0.95 -0.05 0.0011
-0.9375 -0.05 0.00109999
-0.925 -0.05 0.00109999
-0.9125 -0.05 0.00109999
-0.9 -0.05 0.00109999
-0.8875 -0.05 0.00109999
-0.875 -0.05 0.00109999
-0.8625 -0.05 0.00109999
-0.85 -0.05 0.00109999
-0.8375 -0.05 0.00109998
-0.825 -0.0500001 0.00109998
-0.8125 -0.0500001 0.00109998
-0.8 -0.0500001 0.00109998
-0.7875 -0.0500001 0.00109998
-0.775 -0.0500001 0.00109998
-0.7625 -0.0500001 0.00109998
-0.75 -0.0500001 0.00109998
-0.7375 -0.0500001 0.00109997
-0.725 -0.0500001 0.00109997
-0.7125 -0.0500001 0.00109997
-0.7 -0.0500001 0.00109997
-0.6875 -0.0500001 0.00109997
-0.675 -0.0500001 0.00109997
-0.6625 -0.0500001 0.00109997
-0.65 -0.0500001 0.00109996
-0.6375 -0.0500001 0.00109996
-0.625 -0.0500001 0.00109996
-0.6125 -0.0500001 0.00109996
-0.6 -0.0500001 0.00109996
-0.5875 -0.0500001 0.00109996
-0.575 -0.0500001 0.00109996
-0.5625 -0.0500001 0.00109996
-0.55 -0.0500001 0.00109995
-0.5375 -0.0500001 0.00109995
-0.525 -0.0500001 0.00109995
-0.5125 -0.0500001 0.00109995
-0.5 -0.0500001 0.00109995
-0.4875 -0.0500001 0.00109995
-0.475 -0.0500001 0.00109995
-0.4625 -0.0500001 0.00109994
-0.45 -0.0500002 0.00109994
-0.4375 -0.0500002 0.00109994
-0.425 -0.0500002 0.00109994
-0.4125 -0.0500002 0.00109994
-0.4 -0.0500002 0.00109994
-0.3875 -0.0500002 0.00109994
-0.375 -0.0500002 0.00109994
-0.3625 -0.0500002 0.00109993
-0.35 -0.0500002 0.00109993
-0.3375 -0.0500002 0.00109993
-0.325 -0.0500002 0.00109993
-0.3125 -0.0500002 0.00109993
-0.3 -0.0500002 0.00109993
-0.2875 -0.0500002 0.00109993
-0.275 -0.0500002 0.00109993
-0.2625 -0.0500002 0.00109992
-0.25 -0.0500002 0.00109992
-0.2375 -0.0500002 0.00109992
-0.225 -0.0500002 0.00109992
-0.2125 -0.0500002 0.00109992
-0.2 -0.0500002 0.00109992
-0.1875 -0.0500002 0.00109992
-0.175 -0.0500002 0.00109992
-0.1625 -0.0500002 0.00109991
-0.15 -0.0500002 0.00109991
-0.1375 -0.0500002 0.00109991
-0.125 -0.0500002 0.00109991
-0.1125 -0.0500002 0.00109991
-0.1 -0.0500002 0.00109991
-0.0875 -0.0500002 0.00109991
-0.075 -0.0500002 0.00109991
-0.0625 -0.0500002 0.00109991
-0.05 -0.0500003 0.00109991
-0.0375 -0.0500003 0.0010999
-0.025 -0.0500003 0.0010999
-0.0125 -0.0500003 0.0010999
2.10607e-13 -0.0500003 0.0010999
0.0125 -0.0500003 0.0010999
0.025 -0.0500003 0.0010999
0.0375 -0.0500003 0.0010999
0.05 -0.0500003 0.0010999
0.0625 -0.0500003 0.0010999
0.075 -0.0500003 0.0010999
0.0875 -0.0500003 0.0010999
0.1 -0.0500003 0.00109989
0.1125 -0.0500003 0.00109989
0.125 -0.0500003 0.00109989
0.1375 -0.0500003 0.00109989
0.15 -0.0500003 0.00109989
0.1625 -0.0500003 0.00109989
0.175 -0.0500003 0.00109989
0.1875 -0.0500003 0.00109989
0.2 -0.0500003 0.00109989
0.2125 -0.0500003 0.00109989
0.225 -0.0500003 0.00109989
0.2375 -0.0500003 0.00109989
0.25 -0.0500003 0.00109989
0.2625 -0.0500003 0.00109988
0.275 -0.0500003 0.00109988
0.2875 -0.0500003 0.00109988
0.3 -0.0500003 0.00109988
0.3125 -0.0500003 0.00109988
0.325 -0.0500003 0.00109988
0.3375 -0.0500003 0.00109988
0.35 -0.0500003 0.00109988
0.3625 -0.0500003 0.00109988
0.375 -0.0500003 0.00109988
0.3875 -0.0500003 0.00109988
0.4 -0.0500004 0.00109988
0.4125 -0.0500004 0.00109988
0.425 -0.0500004 0.00109988
0.4375 -0.0500004 0.00109988
0.45 -0.0500004 0.00109988
0.4625 -0.0500004 0.00109988
0.475 -0.0500004 0.00109988
0.4875 -0.0500004 0.00109988
0.5 -0.0500004 0.00109988
0.5125 -0.0500004 0.00109988
0.525 -0.0500004 0.00109988
0.5375 -0.0500004 0.00109988
0.55 -0.0500004 0.00109988
0.5625 -0.0500004 0.00109988
0.575 -0.0500004 0.00109987
0.5875 -0.0500004 0.00109987
0.6 -0.0500004 0.00109987
0.6125 -0.0500004 0.00109987
0.625 -0.0500004 0.00109987
0.6375 -0.0500004 0.00109987
0.65 -0.0500004 0.00109987
0.6625 -0.0500004 0.00109987
0.675 -0.0500004 0.00109987
0.6875 -0.0500004 0.00109987
0.7 -0.0500004 0.00109987
0.7125 -0.0500004 0.00109987
0.725 -0.0500004 0.00109987
0.7375 -0.0500004 0.00109987
0.75 -0.0500004 0.00109987
0.7625 -0.0500004 0.00109987
0.775 -0.0500004 0.00109987
0.7875 -0.0500004 0.00109987
0.8 -0.0500004 0.00109987
0.8125 -0.0500004 0.00109987
0.825 -0.0500004 0.00109987
0.8375 -0.0500004 0.00109987
0.85 -0.0500004 0.00109987
0.8625 -0.0500004 0.00109987
0.875 -0.0500004 0.00109987
0.8875 -0.0500004 0.00109987
0.9 -0.0500004 0.00109987
0.9125 -0.0500005 0.00109988
0.925 -0.0500005 0.00109988
0.9375 -0.0500005 0.00109988
0.95 -0.0500005 0.00109988
0.9625 -0.0500005 0.00109988
0.975 -0.0500005 0.00109988
0.9875 -0.0500005 0.00109988
1 -0.0500005 0.00109988
1.0125 -0.0500005 0.00109988
1.025 -0.0500005 0.00109988
1.0375 -0.0500005 0.00109988
1.05 -0.0500005 0.00109988
1.0625 -0.0500005 0.00109988
1.075 -0.0500005 0.00109988
1.0875 -0.0500005 0.00109988
1.1 -0.0500005 0.00109988
1.1125 -0.0500005 0.00109988
1.125 -0.0500005 0.00109988
1.1375 -0.0500005 0.00109988
1.15 -0.0500005 0.00109988
1.1625 -0.0500005 0.00109988
1.175 -0.0500005 0.00109988
1.1875 -0.0500005 0.00109988
1.2 -0.0500005 0.00109988
1.2125 -0.0500005 0.00109988
1.225 -0.0500005 0.00109988
1.2375 -0.0500005 0.00109989
1.25 -0.0500005 0.00109989
1.2625 -0.0500005 0.00109989
1.275 -0.0500005 0.00109989
1.2875 -0.0500005 0.00109989
1.3 -0.0500005 0.00109989
1.3125 -0.0500005 0.00109989
1.325 -0.0500005 0.00109989
1.3375 -0.0500005 0.00109989
1.35 -0.0500005 0.00109989
1.3625 -0.0500005 0.00109989
1.375 -0.0500005 0.00109989
1.3875 -0.0500005 0.00109989
1.4 -0.0500005 0.00109989
1.4125 -0.0500005 0.00109989
1.425 -0.0500005 0.00109989
1.4375 -0.0500005 0.0010999
1.45 -0.0500005 0.0010999
1.4625 -0.0500005 0.0010999
1.475 -0.0500005 0.0010999
1.4875 -0.0500005 0.0010999
1.5 -0.0500006 0.0010999
1.5125 -0.0500006 0.0010999
1.525 -0.0500006 0.0010999
1.5375 -0.0500006 0.0010999
1.55 -0.0500006 0.0010999
1.5625 -0.0500006 0.0010999
1.575 -0.0500006 0.0010999
1.5875 -0.0500006 0.0010999
1.6 -0.0500006 0.0010999
1.6125 -0.0500006 0.00109991
1.625 -0.0500006 0.00109991
1.6375 -0.0500006 0.00109991
1.65 -0.0500006 0.00109991
1.6625 -0.0500006 0.00109991
1.675 -0.0500006 0.00109991
1.6875 -0.0500006 0.00109991
1.7 -0.0500006 0.00109991
1.7125 -0.0500006 0.00109991
1.725 -0.0500006 0.00109991
1.7375 -0.0500006 0.00109991
1.75 -0.0500006 0.00109991
1.7625 -0.0500006 0.00109992
1.775 -0.0500006 0.00109992
1.7875 -0.0500006 0.00109992
1.8 -0.0500006 0.00109992
1.8125 -0.0500006 0.00109992
1.825 -0.0500006 0.00109992
1.8375 -0.0500006 0.00109992
1.85 -0.0500006 0.00109992
1.8625 -0.0500006 0.00109992
1.875 -0.0500006 0.00109992
1.8875 -0.0500006 0.00109992
1.9 -0.0500006 0.00109992
1.9125 -0.0500006 0.00109993
1.925 -0.0500006 0.00109993
1.9375 -0.0500006 0.00109993
1.95 -0.0500006 0.00109993
1.9625 -0.0500006 0.00109993
1.975 -0.0500006 0.00109993
1.9875 -0.0500006 0.00109993
2 -0.0500006 0.00109993
2.0125 -0.0500006 0.00109993
2.025 -0.0500006 0.00109993
2.0375 -0.0500006 0.00109993
2.05 -0.0500006 0.00109993
2.0625 -0.0500006 0.00109993
2.075 -0.0500006 0.00109994
2.0875 -0.0500006 0.00109994
2.1 -0.0500006 0.00109994
2.1125 -0.0500006 0.00109994
2.125 -0.0500006 0.00109994
2.1375 -0.0500006 0.00109994
2.15 -0.0500006 0.00109994
2.1625 -0.0500006 0.00109994
2.175 -0.0500007 0.00109994
2.1875 -0.0500007 0.00109994
2.2 -0.0500007 0.00109994
2.2125 -0.0500007 0.00109994
2.225 -0.0500007 0.00109995
2.2375 -0.0500007 0.00109995
2.25 -0.0500007 0.00109995
2.2625 -0.0500007 0.00109995
2.275 -0.0500007 0.00109995
2.2875 -0.0500007 0.00109995
2.3 -0.0500007 0.00109995
2.3125 -0.0500007 0.00109995
2.325 -0.0500007 0.00109995
2.3375 -0.0500007 0.00109995
2.35 -0.0500007 0.00109995
2.3625 -0.0500007 0.00109995
2.375 -0.0500007 0.00109995
2.3875 -0.0500007 0.00109996
2.4 -0.0500007 0.00109996
2.4125 -0.0500007 0.00109996
2.425 -0.0500007 0.00109996
2.4375 -0.0500007 0.00109996
2.45 -0.0500007 0.00109996
2.4625 -0.0500007 0.00109996
2.475 -0.0500007 0.00109996
2.4875 -0.0500007 0.00109996
2.5 -0.0500007 0.00109996
2.5125 -0.0500007 0.00109996
2.525 -0.0500007 0.00109996
2.5375 -0.0500007 0.00109996
2.55 -0.0500007 0.00109996
2.5625 -0.0500007 0.00109997
2.575 -0.0500007 0.00109997
2.5875 -0.0500007 0.00109997
2.6 -0.0500007 0.00109997
2.6125 -0.0500007 0.00109997
2.625 -0.0500007 0.00109997
2.6375 -0.0500007 0.00109997
2.65 -0.0500007 0.00109997
2.6625 -0.0500007 0.00109997
2.675 -0.0500007 0.00109997
2.6875 -0.0500007 0.00109997
2.7 -0.0500007 0.00109997
2.7125 -0.0500007 0.00109997
2.725 -0.0500007 0.00109997
2.7375 -0.0500007 0.00109997
2.75 -0.0500007 0.00109997
2.7625 -0.0500007 0.00109998
2.775 -0.0500007 0.00109998
2.7875 -0.0500007 0.00109998
2.8 -0.0500007 0.00109998
2.8125 -0.0500007 0.00109998
2.825 -0.0500007 0.00109998
2.8375 -0.0500007 0.00109998
2.85 -0.0500007 0.00109998
2.8625 -0.0500008 0.00109998
2.875 -0.0500008 0.00109998
2.8875 -0.0500008 0.00109998
2.9 -0.0500008 0.00109998
2.9125 -0.0500008 0.00109998
2.925 -0.0500008 0.00109998
2.9375 -0.0500008 0.00109998
2.95 -0.0500008 0.00109998
2.9625 -0.0500008 0.00109998
2.975 -0.0500008 0.00109998
2.9875 -0.0500008 0.00109998
3 -0.0500008 0.00109998
3.0125 -0.0500008 0.00109999
3.025 -0.0500008 0.00109999
3.0375 -0.0500008 0.00109999
3.05 -0.0500008 0.00109999
3.0625 -0.0500008 0.00109999
3.075 -0.0500008 0.00109999
3.0875 -0.0500008 0.00109999
3.1 -0.0500008 0.00109999
3.1125 -0.0500008 0.00109999
3.125 -0.0500008 0.00109999
3.1375 -0.0500008 0.00109999
3.15 -0.0500008 0.00109999
3.1625 -0.0500008 0.00109999
3.175 -0.0500008 0.00109999
3.1875 -0.0500008 0.00109999
3.2 -0.0500008 0.00109999
3.2125 -0.0500008 0.00109999
3.225 -0.0500008 0.00109999
3.2375 -0.0500008 0.00109999
3.25 -0.0500008 0.00109999
3.2625 -0.0500008 0.00109999
3.275 -0.0500008 0.00109999
3.2875 -0.0500008 0.00109999
3.3 -0.0500008 0.00109999
3.3125 -0.0500008 0.00109999
3.325 -0.0500008 0.00109999
3.3375 -0.0500008 0.00109999
3.35 -0.0500008 0.0011
3.3625 -0.0500008 0.0011
[...]
POINT_DATA 15780
 FIELD attributes 1
U 3 15780 float
30.0002 	-7.01789e-06 	-6.30588e-06 30.0002 	-6.8434e-06 	-6.51454e-06 30.0002 	-6.66892e-06 	-6.72321e-06 30.0002 	-6.49443e-06 	-6.93188e-06 30.0002 	-6.31994e-06 	-7.14055e-06 30.0002 	-6.14545e-06 	-7.34921e-06 30.0004 	-1.23851e-05 	-1.261e-06 30.0004 	-1.23851e-05 	-1.261e-06 30.0004 	-1.23851e-05 	-1.261e-06 30.0004 	-1.23851e-05 	-1.261e-06 30.0002 	-7.0493e-08 	-6.84367e-06 30.0005 	-1.0709e-05 	-1.68705e-06 30.0005 	-1.0709e-05 	-1.68705e-06 30.0005 	-1.0709e-05 	-1.68705e-06 30.0005 	-1.0709e-05 	-1.68704e-06 30.0002 	-7.21663e-08 	-6.59608e-06 30.0005 	-9.95844e-06 	-2.08022e-06 30.0005 	-9.95843e-06 	-2.08022e-06 30.0005 	-9.95842e-06 	-2.08022e-06 30.0005 	-9.95841e-06 	-2.08022e-06 30.0003 	-4.59306e-06 	-6.24726e-06 30.0005 	-9.69166e-06 	-2.34895e-06 30.0005 	-9.69165e-06 	-2.34895e-06 30.0005 	-9.69164e-06 	-2.34894e-06 30.0005 	-9.69164e-06 	-2.34894e-06 30.0003 	-7.57378e-08 	-6.57616e-06 30.0005 	-9.52344e-06 	-2.49781e-06 30.0005 	-9.52343e-06 	-2.49781e-06 30.0005 	-9.52342e-06 	-2.49781e-06 30.0005 	-9.52341e-06 	-2.4978e-06 30.0003 	-7.74815e-08 	-6.52627e-06 30.0005 	-9.38707e-06 	-2.55605e-06 30.0005 	-9.38706e-06 	-2.55605e-06 30.0005 	-9.38705e-06 	-2.55605e-06 30.0005 	-9.38704e-06 	-2.55604e-06 30.0003 	-4.26684e-06 	-6.08529e-06 30.0005 	-9.27964e-06 	-2.55828e-06 30.0005 	-9.27963e-06 	-2.55827e-06 30.0005 	-9.27962e-06 	-2.55827e-06 30.0005 	-9.27961e-06 	-2.55827e-06 30.0003 	-4.19922e-06 	-5.97789e-06 30.0006 	-9.18739e-06 	-2.53041e-06 30.0006 	-9.18738e-06 	-2.53041e-06 30.0006 	-9.18737e-06 	-2.5304e-06 30.0006 	-9.18736e-06 	-2.5304e-06 30.0003 	-8.27427e-08 	-6.20126e-06 30.0006 	-9.0973e-06 	-2.48116e-06 30.0006 	-9.09729e-06 	-2.48116e-06 30.0006 	-9.09728e-06 	-2.48116e-06 30.0006 	-9.09728e-06 	-2.48115e-06 30.0003 	-8.4485e-08 	-6.05423e-06 30.0006 	-9.00484e-06 	-2.41359e-06 30.0006 	-9.00483e-06 	-2.41359e-06 30.0006 	-9.00482e-06 	-2.41358e-06 30.0006 	-9.00481e-06 	-2.41358e-06 30.0003 	-8.62352e-08 	-5.88782e-06 30.0006 	-8.90869e-06 	-2.32971e-06 30.0006 	-8.90868e-06 	-2.3297e-06 30.0006 	-8.90867e-06 	-2.3297e-06 30.0006 	-8.90866e-06 	-2.3297e-06 30.0003 	-3.93777e-06 	-5.36347e-06 30.0006 	-8.80864e-06 	-2.23273e-06 30.0006 	-8.80863e-06 	-2.23272e-06 30.0006 	-8.80863e-06 	-2.23272e-06 30.0006 	-8.80862e-06 	-2.23272e-06 30.0003 	-3.86397e-06 	-5.16476e-06 30.0006 	-8.70433e-06 	-2.12412e-06 30.0006 	-8.70432e-06 	-2.12412e-06 30.0006 	-8.70431e-06 	-2.12412e-06 30.0006 	-8.70431e-06 	-2.12412e-06 30.0003 	-9.14756e-08 	-5.28458e-06 30.0006 	-8.59613e-06 	-2.00507e-06 30.0006 	-8.59612e-06 	-2.00506e-06 30.0006 	-8.59611e-06 	-2.00506e-06 30.0006 	-8.59611e-06 	-2.00506e-06 30.0003 	-3.70435e-06 	-4.7194e-06 30.0007 	-8.48475e-06 	-1.87667e-06 30.0007 	-8.48475e-06 	-1.87667e-06 30.0007 	-8.48474e-06 	-1.87667e-06 30.0007 	-8.48474e-06 	-1.87667e-06 30.0003 	-3.61925e-06 	-4.47432e-06 30.0007 	-8.37141e-06 	-1.73883e-06 30.0007 	-8.3714e-06 	-1.73883e-06 30.0007 	-8.3714e-06 	-1.73883e-06 30.0007 	-8.37139e-06 	-1.73883e-06 30.0004 	-9.67016e-08 	-4.5432e-06 30.0007 	-8.25983e-06 	-1.59803e-06 30.0007 	-8.25982e-06 	-1.59803e-06 30.0007 	-8.25982e-06 	-1.59803e-06 30.0007 	-8.25981e-06 	-1.59803e-06 30.0004 	-9.84418e-08 	-4.27125e-06 30.0007 	-8.14784e-06 	-1.46323e-06 30.0007 	-8.14783e-06 	-1.46323e-06 30.0007 	-8.14783e-06 	-1.46323e-06 30.0007 	-8.14782e-06 	-1.46323e-06 30.0004 	-1.00183e-07 	-3.98928e-06 30.0007 	-8.01978e-06 	-1.32073e-06 30.0007 	-8.01977e-06 	-1.32073e-06 30.0007 	-8.01977e-06 	-1.32073e-06 30.0007 	-8.01977e-06 	-1.32072e-06 30.0004 	-3.25092e-06 	-3.37796e-06 30.0007 	-7.88099e-06 	-1.16801e-06 30.0007 	-7.88099e-06 	-1.16801e-06 30.0007 	-7.88099e-06 	-1.16801e-06 30.0007 	-7.88098e-06 	-1.16801e-06 30.0004 	-1.03625e-07 	-3.40289e-06 30.0007 	-7.74508e-06 	-1.00789e-06 30.0007 	-7.74508e-06 	-1.00788e-06 30.0007 	-7.74507e-06 	-1.00788e-06 30.0007 	-7.74507e-06 	-1.00788e-06 30.0004 	-1.05345e-07 	-3.10329e-06 30.0007 	-7.61095e-06 	-8.41873e-07 30.0007 	-7.61095e-06 	-8.41873e-07 30.0007 	-7.61095e-06 	-8.41872e-07 30.0007 	-7.61094e-06 	-8.41872e-07 30.0004 	-2.93178e-06 	-2.4879e-06 30.0007 	-7.47519e-06 	-6.70224e-07 30.0007 	-7.47519e-06 	-6.70223e-07 30.0007 	-7.47518e-06 	-6.70223e-07 30.0007 	-7.47518e-06 	-6.70223e-07 30.0004 	-2.82531e-06 	-2.18314e-06 30.0007 	-7.34307e-06 	-4.97072e-07 30.0007 	-7.34307e-06 	-4.97072e-07 30.0007 	-7.34307e-06 	-4.97071e-07 30.0007 	-7.34306e-06 	-4.97071e-07 30.0004 	-1.10451e-07 	-2.17113e-06 30.0007 	-7.21528e-06 	-3.17346e-07 30.0007 	-7.21528e-06 	-3.17346e-07 30.0007 	-7.21528e-06 	-3.17346e-07 30.0007 	-7.21528e-06 	-3.17346e-07 30.0004 	-1.12136e-07 	-1.85339e-06 30.0007 	-7.09856e-06 	-1.38243e-07 30.0007 	-7.09856e-06 	-1.38243e-07 30.0007 	-7.09855e-06 	-1.38243e-07 30.0007 	-7.09855e-06 	-1.38243e-07 30.0004 	-1.13802e-07 	-1.54905e-06 30.0007 	-6.98524e-06 	4.08237e-08 30.0007 	-6.98524e-06 	4.08237e-08 30.0007 	-6.98524e-06 	4.08237e-08 30.0007 	-6.98524e-06 	4.08237e-08 30.0004 	-2.4389e-06 	-9.58523e-07 30.0007 	-6.87165e-06 	2.14636e-07 30.0007 	-6.87165e-06 	2.14636e-07 30.0007 	-6.87165e-06 	2.14636e-07 30.0007 	-6.87165e-06 	2.14636e-07 30.0004 	-2.3473e-06 	-6.82322e-07 30.0007 	-6.75353e-06 	3.90685e-07 30.0007 	-6.75353e-06 	3.90685e-07 30.0007 	-6.75353e-06 	3.90685e-07 30.0007 	-6.75353e-06 	3.90686e-07 30.0004 	-1.18796e-07 	-7.098e-07 30.0007 	-6.64304e-06 	5.64337e-07 30.0007 	-6.64304e-06 	5.64338e-07 30.0007 	-6.64304e-06 	5.64338e-07 30.0007 	-6.64305e-06 	5.64338e-07 30.0004 	-2.16698e-06 	-1.45465e-07 30.0007 	-6.53608e-06 	7.27363e-07 30.0007 	-6.53608e-06 	7.27364e-07 30.0007 	-6.53608e-06 	7.27364e-07 30.0007 	-6.53608e-06 	7.27364e-07 30.0004 	-2.08132e-06 	1.13812e-07 30.0007 	-6.43078e-06 	8.78802e-07 30.0007 	-6.43078e-06 	8.78802e-07 30.0007 	-6.43079e-06 	8.78803e-07 30.0007 	-6.43079e-06 	8.78803e-07 30.0004 	-1.23729e-07 	7.05463e-08 30.0007 	-6.32322e-06 	1.01776e-06 30.0007 	-6.32322e-06 	1.01776e-06 30.0007 	-6.32322e-06 	1.01776e-06 30.0007 	-6.32322e-06 	1.01776e-06 30.0004 	-1.2532e-07 	3.15777e-07 30.0007 	-6.21685e-06 	1.14059e-06 30.0007 	-6.21686e-06 	1.14059e-06 30.0007 	-6.21686e-06 	1.14059e-06 30.0007 	-6.21686e-06 	1.14059e-06 30.0004 	-1.26907e-07 	5.45497e-07 30.0007 	-6.1156e-06 	1.25629e-06 30.0007 	-6.1156e-06 	1.25629e-06 30.0007 	-6.1156e-06 	1.25629e-06 30.0007 	-6.1156e-06 	1.25629e-06 30.0004 	-1.76452e-06 	1.03206e-06 30.0007 	-6.02288e-06 	1.37124e-06 30.0007 	-6.02288e-06 	1.37124e-06 30.0007 	-6.02288e-06 	1.37124e-06 30.0007 	-6.02288e-06 	1.37124e-06 30.0004 	-1.30014e-07 	9.36917e-07 30.0007 	-5.94321e-06 	1.48847e-06 30.0007 	-5.94321e-06 	1.48847e-06 30.0007 	-5.94322e-06 	1.48847e-06 30.0007 	-5.94322e-06 	1.48847e-06 30.0004 	-1.31513e-07 	1.10454e-06 30.0007 	-5.87198e-06 	1.59286e-06 30.0007 	-5.87199e-06 	1.59286e-06 30.0007 	-5.87199e-06 	1.59286e-06 30.0007 	-5.87199e-06 	1.59286e-06 30.0004 	-1.59163e-06 	1.53875e-06 30.0007 	-5.80236e-06 	1.67928e-06 30.0007 	-5.80236e-06 	1.67928e-06 30.0007 	-5.80237e-06 	1.67928e-06 30.0007 	-5.80237e-06 	1.67928e-06 30.0003 	-1.54441e-06 	1.6782e-06 30.0007 	-5.73428e-06 	1.75008e-06 30.0007 	-5.73429e-06 	1.75008e-06 30.0007 	-5.73429e-06 	1.75008e-06 30.0007 	-5.7343e-06 	1.75008e-06 30.0003 	-1.36191e-07 	1.5247e-06 30.0006 	-5.66913e-06 	1.80978e-06 30.0006 	-5.66913e-06 	1.80978e-06 30.0006 	-5.66913e-06 	1.80978e-06 30.0006 	-5.66914e-06 	1.80978e-06 30.0003 	-1.37728e-07 	1.63225e-06 30.0006 	-5.60902e-06 	1.85991e-06 30.0006 	-5.60903e-06 	1.85991e-06 30.0006 	-5.60903e-06 	1.85991e-06 30.0006 	-5.60903e-06 	1.85991e-06 30.0003 	-1.3918e-07 	1.72398e-06 30.0006 	-5.5547e-06 	1.9004e-06 30.0006 	-5.5547e-06 	1.9004e-06 30.0006 	-5.55471e-06 	1.90041e-06 30.0006 	-5.55471e-06 	1.90041e-06 30.0003 	-1.38903e-06 	2.07102e-06 30.0006 	-5.50583e-06 	1.93106e-06 30.0006 	-5.50583e-06 	1.93106e-06 30.0006 	-5.50584e-06 	1.93107e-06 30.0006 	-5.50584e-06 	1.93107e-06 30.0003 	-1.36197e-06 	2.13095e-06 30.0006 	-5.46204e-06 	1.9518e-06 30.0006 	-5.46204e-06 	1.9518e-06 30.0006 	-5.46204e-06 	1.9518e-06 30.0006 	-5.46205e-06 	1.9518e-06 30.0003 	-1.43127e-07 	1.90824e-06 30.0006 	-5.42316e-06 	1.96274e-06 30.0006 	-5.42316e-06 	1.96274e-06 30.0006 	-5.42316e-06 	1.96274e-06 30.0006 	-5.42317e-06 	1.96274e-06 30.0003 	-1.32352e-06 	2.20764e-06 30.0006 	-5.38916e-06 	1.96427e-06 30.0006 	-5.38917e-06 	1.96427e-06 30.0006 	-5.38917e-06 	1.96427e-06 30.0006 	-5.38917e-06 	1.96427e-06 30.0003 	-1.31173e-06 	2.22552e-06 30.0006 	-5.35993e-06 	1.95686e-06 30.0006 	-5.35994e-06 	1.95687e-06 30.0006 	-5.35994e-06 	1.95687e-06 30.0006 	-5.35994e-06 	1.95687e-06 30.0003 	-1.46905e-07 	1.96615e-06 30.0005 	-5.33536e-06 	1.94106e-06 30.0005 	-5.33536e-06 	1.94106e-06 30.0005 	-5.33537e-06 	1.94106e-06 30.0005 	-5.33537e-06 	1.94106e-06 30.0003 	-1.48119e-07 	1.96054e-06 30.0005 	-5.31532e-06 	1.91787e-06 30.0005 	-5.31532e-06 	1.91787e-06 30.0005 	-5.31533e-06 	1.91787e-06 30.0005 	-5.31533e-06 	1.91787e-06 30.0003 	-1.49315e-07 	1.94421e-06 30.0005 	-5.29969e-06 	1.88793e-06 30.0005 	-5.29969e-06 	1.88793e-06 30.0005 	-5.2997e-06 	1.88793e-06 30.0005 	-5.2997e-06 	1.88793e-06 30.0003 	-1.30909e-06 	2.17898e-06 30.0005 	-5.28831e-06 	1.85183e-06 30.0005 	-5.28832e-06 	1.85183e-06 30.0005 	-5.28832e-06 	1.85183e-06 30.0005 	-5.28832e-06 	1.85183e-06 30.0003 	-1.51625e-07 	1.88227e-06 30.0005 	-5.28099e-06 	1.81e-06 30.0005 	-5.28099e-06 	1.81e-06 30.0005 	-5.281e-06 	1.81001e-06 30.0005 	-5.281e-06 	1.81001e-06 30.0003 	-1.52727e-07 	1.83814e-06 30.0005 	-5.2775e-06 	1.76308e-06 30.0005 	-5.27751e-06 	1.76308e-06 30.0005 	-5.27751e-06 	1.76308e-06 30.0005 	-5.27751e-06 	1.76308e-06 30.0003 	-1.34826e-06 	2.04406e-06 30.0005 	-5.27764e-06 	1.71154e-06 30.0005 	-5.27764e-06 	1.71154e-06 30.0005 	-5.27764e-06 	1.71154e-06 30.0005 	-5.27765e-06 	1.71154e-06 30.0003 	-1.36831e-06 	1.98422e-06 30.0005 	-5.28115e-06 	1.6559e-06 30.0005 	-5.28115e-06 	1.6559e-06 30.0005 	-5.28116e-06 	1.6559e-06 30.0005 	-5.28116e-06 	1.6559e-06 30.0002 	-1.55886e-07 	1.66277e-06 30.0005 	-5.28791e-06 	1.59659e-06 30.0005 	-5.28791e-06 	1.59659e-06 30.0005 	-5.28791e-06 	1.59659e-06 30.0005 	-5.28792e-06 	1.59659e-06 30.0002 	-1.56925e-07 	1.59253e-06 30.0004 	-5.29783e-06 	1.53406e-06 30.0004 	-5.29783e-06 	1.53406e-06 30.0004 	-5.29784e-06 	1.53406e-06 30.0004 	-5.29784e-06 	1.53406e-06 30.0002 	-1.57991e-07 	1.51766e-06 30.0004 	-5.31075e-06 	1.46879e-06 30.0004 	-5.31075e-06 	1.4688e-06 30.0004 	-5.31075e-06 	1.4688e-06 30.0004 	-5.31076e-06 	1.4688e-06 30.0002 	-1.47993e-06 	1.6906e-06 30.0004 	-5.32626e-06 	1.40134e-06 30.0004 	-5.32627e-06 	1.40134e-06 30.0004 	-5.32627e-06 	1.40134e-06 30.0004 	-5.32627e-06 	1.40134e-06 30.0002 	-1.51444e-06 	1.60711e-06 30.0004 	-5.34411e-06 	1.33209e-06 30.0004 	-5.34412e-06 	1.33209e-06 30.0004 	-5.34412e-06 	1.33209e-06 30.0004 	-5.34412e-06 	1.33209e-06 30.0002 	-1.61196e-07 	1.27183e-06 30.0004 	-5.36407e-06 	1.26138e-06 30.0004 	-5.36407e-06 	1.26138e-06 30.0004 	-5.36408e-06 	1.26138e-06 30.0004 	-5.36408e-06 	1.26138e-06 30.0002 	-1.58974e-06 	1.43248e-06 30.0004 	-5.38587e-06 	1.1897e-06 30.0004 	-5.38588e-06 	1.1897e-06 30.0004 	-5.38588e-06 	1.18971e-06 30.0004 	-5.38588e-06 	1.18971e-06 30.0002 	-1.63022e-06 	1.3424e-06 30.0004 	-5.40946e-06 	1.11737e-06 30.0004 	-5.40947e-06 	1.11737e-06 30.0004 	-5.40947e-06 	1.11738e-06 30.0004 	-5.40947e-06 	1.11738e-06 30.0002 	-1.64188e-07 	1.00605e-06 30.0004 	-5.43458e-06 	1.0447e-06 30.0004 	-5.43458e-06 	1.0447e-06 30.0004 	-5.43458e-06 	1.0447e-06 30.0004 	-5.43458e-06 	1.0447e-06 30.0002 	-1.6513e-07 	9.15578e-07 30.0004 	-5.4602e-06 	9.72168e-07 30.0004 	-5.4602e-06 	9.72168e-07 30.0004 	-5.46021e-06 	9.72168e-07 30.0004 	-5.46021e-06 	9.72169e-07 30.0002 	-1.66029e-07 	8.24955e-07 30.0004 	-5.48623e-06 	8.99387e-07 30.0004 	-5.48623e-06 	8.99387e-07 30.0004 	-5.48623e-06 	8.99388e-07 30.0004 	-5.48623e-06 	8.99388e-07 30.0002 	-1.8071e-06 	9.75409e-07 30.0004 	-5.51299e-06 	8.25859e-07 30.0004 	-5.51299e-06 	8.25859e-07 30.0004 	-5.51299e-06 	8.25859e-07 30.0004 	-5.513e-06 	8.2586e-07 30.0002 	-1.67723e-07 	6.43589e-07 30.0003 	-5.54273e-06 	7.51901e-07 30.0003 	-5.54273e-06 	7.51901e-07 30.0003 	-5.54273e-06 	7.51901e-07 30.0003 	-5.54274e-06 	7.51902e-07 30.0002 	-1.68556e-07 	5.52594e-07 30.0003 	-5.5772e-06 	6.77359e-07 30.0003 	-5.5772e-06 	6.77359e-07 30.0003 	-5.5772e-06 	6.7736e-07 30.0003 	-5.5772e-06 	6.7736e-07 30.0002 	-1.95545e-06 	7.01303e-07 30.0003 	-5.61403e-06 	6.04289e-07 30.0003 	-5.61403e-06 	6.04289e-07 30.0003 	-5.61403e-06 	6.04289e-07 30.0003 	-5.61404e-06 	6.0429e-07 30.0002 	-2.00764e-06 	6.11674e-07 30.0003 	-5.65013e-06 	5.34584e-07 30.0003 	-5.65013e-06 	5.34584e-07 30.0003 	-5.65013e-06 	5.34584e-07 30.0003 	-5.65014e-06 	5.34585e-07 30.0002 	-1.71037e-07 	2.80898e-07 30.0003 	-5.68123e-06 	4.67566e-07 30.0003 	-5.68123e-06 	4.67566e-07 30.0003 	-5.68123e-06 	4.67566e-07 30.0003 	-5.68123e-06 	4.67566e-07 30.0002 	-1.71864e-07 	1.97285e-07 30.0003 	-5.70964e-06 	4.03125e-07 30.0003 	-5.70964e-06 	4.03125e-07 30.0003 	-5.70964e-06 	4.03125e-07 30.0003 	-5.70964e-06 	4.03125e-07 30.0002 	-1.72658e-07 	1.16355e-07 30.0003 	-5.7378e-06 	3.3916e-07 30.0003 	-5.7378e-06 	3.3916e-07 30.0003 	-5.7378e-06 	3.3916e-07 30.0003 	-5.7378e-06 	3.3916e-07 30.0002 	-2.20089e-06 	2.74076e-07 30.0003 	-5.76576e-06 	2.75193e-07 30.0003 	-5.76576e-06 	2.75193e-07 30.0003 	-5.76576e-06 	2.75193e-07 30.0003 	-5.76576e-06 	2.75193e-07 30.0002 	-2.24781e-06 	1.96335e-07 30.0003 	-5.79254e-06 	2.10717e-07 30.0003 	-5.79254e-06 	2.10717e-07 30.0003 	-5.79254e-06 	2.10717e-07 30.0003 	-5.79255e-06 	2.10717e-07 30.0002 	-1.74832e-07 	-1.09187e-07 30.0003 	-5.82055e-06 	1.4872e-07 30.0003 	-5.82055e-06 	1.4872e-07 30.0003 	-5.82055e-06 	1.4872e-07 30.0003 	-5.82055e-06 	1.4872e-07 30.0002 	-2.34159e-06 	4.46517e-08 30.0003 	-5.84979e-06 	8.99246e-08 30.0003 	-5.8498e-06 	8.99246e-08 30.0003 	-5.8498e-06 	8.99246e-08 30.0003 	-5.8498e-06 	8.99246e-08 30.0002 	-2.38889e-06 	-2.91207e-08 30.0003 	-5.88021e-06 	3.4757e-08 30.0003 	-5.88021e-06 	3.4757e-08 30.0003 	-5.88021e-06 	3.4757e-08 30.0003 	-5.88021e-06 	3.4757e-08 30.0002 	-1.76838e-07 	-3.30809e-07 30.0003 	-5.91202e-06 	-1.71175e-08 30.0003 	-5.91202e-06 	-1.71175e-08 30.0003 	-5.91202e-06 	-1.71175e-08 30.0003 	-5.91202e-06 	-1.71175e-08 30.0002 	-1.77475e-07 	-4.01841e-07 30.0003 	-5.94513e-06 	-6.90932e-08 30.0003 	-5.94513e-06 	-6.90932e-08 30.0003 	-5.94513e-06 	-6.90932e-08 30.0003 	-5.94513e-06 	-6.90932e-08 30.0002 	-1.78076e-07 	-4.67112e-07 30.0003 	-5.97707e-06 	-1.23358e-07 30.0003 	-5.97707e-06 	-1.23358e-07 30.0003 	-5.97707e-06 	-1.23358e-07 30.0003 	-5.97707e-06 	-1.23358e-07 30.0002 	-2.5804e-06 	-3.01394e-07 30.0003 	-6.00483e-06 	-1.77997e-07 30.0003 	-6.00483e-06 	-1.77997e-07 30.0003 	-6.00483e-06 	-1.77997e-07 30.0003 	-6.00483e-06 	-1.77997e-07 30.0002 	-1.79252e-07 	-5.84919e-07 30.0003 	-6.02898e-06 	-2.29251e-07 30.0003 	-6.02898e-06 	-2.29251e-07 30.0003 	-6.02898e-06 	-2.29251e-07 30.0003 	-6.02898e-06 	-2.29251e-07 30.0002 	-1.79858e-07 	-6.4218e-07 30.0003 	-6.05221e-06 	-2.76213e-07 30.0003 	-6.05221e-06 	-2.76213e-07 30.0003 	-6.05221e-06 	-2.76213e-07 30.0003 	-6.05221e-06 	-2.76213e-07 30.0002 	-2.70845e-06 	-4.78996e-07 30.0003 	-6.07605e-06 	-3.19698e-07 30.0003 	-6.07605e-06 	-3.19698e-07 30.0003 	-6.07605e-06 	-3.19698e-07 30.0003 	-6.07605e-06 	-3.19698e-07 30.0002 	-2.74948e-06 	-5.34038e-07 30.0003 	-6.10035e-06 	-3.6122e-07 30.0003 	-6.10035e-06 	-3.6122e-07 30.0003 	-6.10035e-06 	-3.6122e-07 30.0003 	-6.10035e-06 	-3.6122e-07 30.0002 	-1.81587e-07 	-8.03815e-07 30.0003 	-6.12438e-06 	-4.01415e-07 30.0003 	-6.12438e-06 	-4.01415e-07 30.0003 	-6.12437e-06 	-4.01415e-07 30.0003 	-6.12437e-06 	-4.01415e-07 30.0001 	-1.82126e-07 	-8.53132e-07 30.0003 	-6.14775e-06 	-4.40408e-07 30.0003 	-6.14775e-06 	-4.40408e-07 30.0003 	-6.14774e-06 	-4.40408e-07 30.0003 	-6.14774e-06 	-4.40408e-07 30.0001 	-1.82648e-07 	-9.00341e-07 30.0003 	-6.17038e-06 	-4.78034e-07 30.0003 	-6.17038e-06 	-4.78034e-07 30.0003 	-6.17038e-06 	-4.78034e-07 30.0003 	-6.17037e-06 	-4.78034e-07 30.0001 	-2.90895e-06 	-7.31468e-07 30.0003 	-6.19215e-06 	-5.14249e-07 30.0003 	-6.19215e-06 	-5.14249e-07 30.0003 	-6.19214e-06 	-5.14249e-07 30.0003 	-6.19214e-06 	-5.14249e-07 30.0001 	-2.94681e-06 	-7.75594e-07 30.0003 	-6.21312e-06 	-5.48866e-07 30.0003 	-6.21312e-06 	-5.48866e-07 30.0003 	-6.21311e-06 	-5.48866e-07 30.0003 	-6.21311e-06 	-5.48866e-07 30.0001 	-1.84154e-07 	-1.02955e-06 30.0003 	-6.23322e-06 	-5.82077e-07 30.0003 	-6.23322e-06 	-5.82077e-07 30.0003 	-6.23322e-06 	-5.82077e-07 30.0003 	-6.23322e-06 	-5.82077e-07 30.0001 	-3.01981e-06 	-8.57481e-07 30.0003 	-6.25247e-06 	-6.13923e-07 30.0003 	-6.25247e-06 	-6.13923e-07 30.0003 	-6.25247e-06 	-6.13923e-07 30.0003 	-6.25247e-06 	-6.13922e-07 30.0001 	-3.0549e-06 	-8.95487e-07 30.0003 	-6.27096e-06 	-6.44448e-07 30.0003 	-6.27096e-06 	-6.44448e-07 30.0003 	-6.27095e-06 	-6.44448e-07 30.0003 	-6.27095e-06 	-6.44448e-07 30.0001 	-1.85572e-07 	-1.14086e-06 30.0003 	-6.28878e-06 	-6.73649e-07 30.0003 	-6.28878e-06 	-6.73649e-07 30.0003 	-6.28878e-06 	-6.73649e-07 30.0003 	-6.28878e-06 	-6.73649e-07 30.0001 	-1.86036e-07 	-1.17461e-06 30.0003 	-6.30578e-06 	-7.01467e-07 30.0003 	-6.30578e-06 	-7.01467e-07 30.0003 	-6.30578e-06 	-7.01467e-07 30.0003 	-6.30578e-06 	-7.01466e-07 30.0001 	-1.86482e-07 	-1.20669e-06 30.0003 	-6.32185e-06 	-7.27904e-07 30.0003 	-6.32185e-06 	-7.27903e-07 30.0003 	-6.32185e-06 	-7.27903e-07 30.0003 	-6.32185e-06 	-7.27903e-07 30.0001 	-3.18635e-06 	-1.03101e-06 30.0003 	-6.33711e-06 	-7.53013e-07 30.0003 	-6.3371e-06 	-7.53012e-07 30.0003 	-6.3371e-06 	-7.53012e-07 30.0003 	-6.3371e-06 	-7.53012e-07 30.0001 	-1.87343e-07 	-1.26597e-06 30.0003 	-6.35164e-06 	-7.7698e-07 30.0003 	-6.35164e-06 	-7.7698e-07 30.0003 	-6.35163e-06 	-7.7698e-07 30.0003 	-6.35163e-06 	-7.76979e-07 30.0001 	-1.87769e-07 	-1.29333e-06 30.0003 	-6.36543e-06 	-7.99852e-07 30.0003 	-6.36543e-06 	-7.99852e-07 30.0003 	-6.36543e-06 	-7.99851e-07 30.0003 	-6.36543e-06 	-7.99851e-07 30.0001 	-3.27575e-06 	-1.11606e-06 30.0003 	-6.3785e-06 	-8.21586e-07 30.0003 	-6.37849e-06 	-8.21585e-07 30.0003 	-6.37849e-06 	-8.21585e-07 30.0003 	-6.37849e-06 	-8.21585e-07 30.0001 	-3.30387e-06 	-1.14153e-06 30.0003 	-6.39086e-06 	-8.42018e-07 30.0003 	-6.39086e-06 	-8.42017e-07 30.0003 	-6.39085e-06 	-8.42017e-07 30.0003 	-6.39085e-06 	-8.42017e-07 30.0001 	-1.88969e-07 	-1.36687e-06 30.0003 	-6.40249e-06 	-8.61414e-07 30.0003 	-6.40248e-06 	-8.61413e-07 30.0003 	-6.40248e-06 	-8.61413e-07 30.0003 	-6.40248e-06 	-8.61413e-07 30.0001 	-1.89355e-07 	-1.38875e-06 30.0003 	-6.41341e-06 	-8.79853e-07 30.0003 	-6.41341e-06 	-8.79852e-07 30.0003 	-6.41341e-06 	-8.79852e-07 30.0003 	-6.4134e-06 	-8.79852e-07 30.0001 	-1.89733e-07 	-1.4094e-06 30.0003 	-6.42365e-06 	-8.97342e-07 30.0003 	-6.42364e-06 	-8.97342e-07 30.0003 	-6.42364e-06 	-8.97342e-07 30.0003 	-6.42364e-06 	-8.97341e-07 30.0001 	-3.4082e-06 	-1.23053e-06 30.0003 	-6.43321e-06 	-9.13929e-07 30.0003 	-6.43321e-06 	-9.13929e-07 30.0003 	-6.4332e-06 	-9.13928e-07 30.0003 	-6.4332e-06 	-9.13928e-07 30.0001 	-3.43234e-06 	-1.24985e-06 30.0003 	-6.44218e-06 	-9.29613e-07 30.0003 	-6.44218e-06 	-9.29613e-07 30.0003 	-6.44218e-06 	-9.29612e-07 30.0003 	-6.44218e-06 	-9.29612e-07 30.0001 	-1.90864e-07 	-1.46456e-06 30.0003 	-6.45051e-06 	-9.44462e-07 30.0003 	-6.45051e-06 	-9.44461e-07 30.0003 	-6.45051e-06 	-9.44461e-07 30.0003 	-6.45051e-06 	-9.44461e-07 30.0001 	-3.47847e-06 	-1.28534e-06 30.0003 	-6.45819e-06 	-9.58471e-07 30.0003 	-6.45819e-06 	-9.58471e-07 30.0003 	-6.45819e-06 	-9.5847e-07 30.0003 	-6.45818e-06 	-9.5847e-07 30.0001 	-3.50053e-06 	-1.30161e-06 30.0003 	-6.46528e-06 	-9.71763e-07 30.0003 	-6.46528e-06 	-9.71763e-07 30.0003 	-6.46528e-06 	-9.71763e-07 30.0003 	-6.46528e-06 	-9.71762e-07 