# vtk DataFile Version 2.0
track0
ASCII
DATASET POLYDATA
POINTS 15780 float
-1.001 -0.05 0.0011
-1.0008 -0.05 0.0011
-1.0006 -0.05 0.0011
-1.0004 -0.05 0.0011
-1.0002 -0.05 0.0011
-1 -0.05 0.0011
-0.9875 -0.05 0.0011
-0.975 -0.05 0.0011
-0.9625 -0.05 0.0011
-0.95 -0.05 0.0011
-0.9375 -0.05 0.00109999
-0.925 -0.05 0.00109999
-0.9125 -0.05 0.00109999
-0.9 -0.05 0.00109999
-0.8875 -0.05 0.00109999
-0.875 -0.05 0.00109999
-0.8625 -0.05 0.00109999
-0.85 -0.05 0.00109999
-0.8375 -0.05 0.00109998
-0.825 -0.0500001 0.00109998
-0.8125 -0.0500001 0.00109998
-0.8 -0.0500001 0.00109998
-0.7875 -0.0500001 0.00109998
-0.775 -0.0500001 0.00109998
-0.7625 -0.0500001 0.00109998
-0.75 -0.0500001 0.00109998
-0.7375 -0.0500001 0.00109997
-0.725 -0.0500001 0.00109997
-0.7125 -0.0500001 0.00109997
-0.7 -0.0500001 0.00109997
-0.6875 -0.0500001 0.00109997
-0.675 -0.0500001 0.00109997
-0.6625 -0.0500001 0.00109997
-0.65 -0.0500001 0.00109996
-0.6375 -0.0500001 0.00109996
-0.625 -0.0500001 0.00109996
-0.6125 -0.0500001 0.00109996
-0.6 -0.0500001 0.00109996
-0.5875 -0.0500001 0.00109996
-0.575 -0.0500001 0.00109996
-0.5625 -0.0500001 0.00109996
-0.55 -0.0500001 0.00109995
-0.5375 -0.0500001 0.00109995
-0.525 -0.0500001 0.00109995
-0.5125 -0.0500001 0.00109995
-0.5 -0.0500001 0.00109995
-0.4875 -0.0500001 0.00109995
-0.475 -0.0500001 0.00109995
-0.4625 -0.0500001 0.00109994
-0.45 -0.0500002 0.00109994
-0.4375 -0.0500002 0.00109994
-0.425 -0.0500002 0.00109994
-0.4125 -0.0500002 0.00109994
-0.4 -0.0500002 0.00109994
-0.3875 -0.0500002 0.00109994
-0.375 -0.0500002 0.00109994
-0.3625 -0.0500002 0.00109993
-0.35 -0.0500002 0.00109993
-0.3375 -0.0500002 0.00109993
-0.325 -0.0500002 0.00109993
-0.3125 -0.0500002 0.00109993
-0.3 -0.0500002 0.00109993
-0.2875 -0.0500002 0.00109993
-0.275 -0.0500002 0.00109993
-0.2625 -0.0500002 0.00109992
-0.25 -0.0500002 0.00109992
-0.2375 -0.0500002 0.00109992
-0.225 -0.0500002 0.00109992
-0.2125 -0.0500002 0.00109992
-0.2 -0.0500002 0.00109992
-0.1875 -0.0500002 0.00109992
-0.175 -0.0500002 0.00109992
-0.1625 -0.0500002 0.00109991
-0.15 -0.0500002 0.00109991
-0.1375 -0.0500002 0.00109991
-0.125 -0.0500002 0.00109991
-0.1125 -0.0500002 0.00109991
-0.1 -0.0500002 0.00109991
-0.0875 -0.0500002 0.00109991
-0.075 -0.0500002 0.00109991
-0.0625 -0.0500002 0.00109991
-0.05 -0.0500003 0.00109991
-0.0375 -0.0500003 0.0010999
-0.025 -0.0500003 0.0010999
-0.0125 -0.0500003 0.0010999
2.10607e-13 -0.0500003 0.0010999
0.0125 -0.0500003 0.0010999
0.025 -0.0500003 0.0010999
0.0375 -0.0500003 0.0010999
0.05 -0.0500003 0.0010999
0.0625 -0.0500003 0.0010999
0.075 -0.0500003 0.0010999
0.0875 -0.0500003 0.0010999
0.1 -0.0500003 0.00109989
0.1125 -0.0500003 0.00109989
0.125 -0.0500003 0.00109989
0.1375 -0.0500003 0.00109989
0.15 -0.0500003 0.00109989
0.1625 -0.0500003 0.00109989
0.175 -0.0500003 0.00109989
0.1875 -0.0500003 0.00109989
0.2 -0.0500003 0.00109989
0.2125 -0.0500003 0.00109989
0.225 -0.0500003 0.00109989
0.2375 -0.0500003 0.00109989
0.25 -0.0500003 0.00109989
0.2625 -0.0500003 0.00109988
0.275 -0.0500003 0.00109988
0.2875 -0.0500003 0.00109988
0.3 -0.0500003 0.00109988
0.3125 -0.0500003 0.00109988
0.325 -0.0500003 0.00109988
0.3375 -0.0500003 0.00109988
0.35 -0.0500003 0.00109988
0.3625 -0.0500003 0.00109988
0.375 -0.0500003 0.00109988
0.3875 -0.0500003 0.00109988
0.4 -0.0500004 0.00109988
0.4125 -0.0500004 0.00109988
0.425 -0.0500004 0.00109988
0.4375 -0.0500004 0.00109988
0.45 -0.0500004 0.00109988
0.4625 -0.0500004 0.00109988
0.475 -0.0500004 0.00109988
0.4875 -0.0500004 0.00109988
0.5 -0.0500004 0.00109988
0.5125 -0.0500004 0.00109988
0.525 -0.0500004 0.00109988
0.5375 -0.0500004 0.00109988
0.55 -0.0500004 0.00109988
0.5625 -0.0500004 0.00109988
0.575 -0.0500004 0.00109987
0.5875 -0.0500004 0.00109987
0.6 -0.0500004 0.00109987
0.6125 -0.0500004 0.00109987
0.625 -0.0500004 0.00109987
0.6375 -0.0500004 0.00109987
0.65 -0.0500004 0.00109987
0.6625 -0.0500004 0.00109987
0.675 -0.0500004 0.00109987
0.6875 -0.0500004 0.00109987
0.7 -0.0500004 0.00109987
0.7125 -0.0500004 0.00109987
0.725 -0.0500004 0.00109987
0.7375 -0.0500004 0.00109987
0.75 -0.0500004 0.00109987
0.7625 -0.0500004 0.00109987
0.775 -0.0500004 0.00109987
0.7875 -0.0500004 0.00109987
0.8 -0.0500004 0.00109987
0.8125 -0.0500004 0.00109987
0.825 -0.0500004 0.00109987
0.8375 -0.0500004 0.00109987
0.85 -0.0500004 0.00109987
0.8625 -0.0500004 0.00109987
0.875 -0.0500004 0.00109987
0.8875 -0.0500004 0.00109987
0.9 -0.0500004 0.00109987
0.9125 -0.0500005 0.00109988
0.925 -0.0500005 0.00109988
0.9375 -0.0500005 0.00109988
0.95 -0.0500005 0.00109988
0.9625 -0.0500005 0.00109988
0.975 -0.0500005 0.00109988
0.9875 -0.0500005 0.00109988
1 -0.0500005 0.00109988
1.0125 -0.0500005 0.00109988
1.025 -0.0500005 0.00109988
1.0375 -0.0500005 0.00109988
1.05 -0.0500005 0.00109988
1.0625 -0.0500005 0.00109988
1.075 -0.0500005 0.00109988
1.0875 -0.0500005 0.00109988
1.1 -0.0500005 0.00109988
1.1125 -0.0500005 0.00109988
1.125 -0.0500005 0.00109988
1.1375 -0.0500005 0.00109988
1.15 -0.0500005 0.00109988
1.1625 -0.0500005 0.00109988
1.175 -0.0500005 0.00109988
1.1875 -0.0500005 0.00109988
1.2 -0.0500005 0.00109988
1.2125 -0.0500005 0.00109988
1.225 -0.0500005 0.00109988
1.2375 -0.0500005 0.00109989
1.25 -0.0500005 0.00109989
1.2625 -0.0500005 0.00109989
1.275 -0.0500005 0.00109989
1.2875 -0.0500005 0.00109989
1.3 -0.0500005 0.00109989
1.3125 -0.0500005 0.00109989
1.325 -0.0500005 0.00109989
1.3375 -0.0500005 0.00109989
1.35 -0.0500005 0.00109989
1.3625 -0.0500005 0.00109989
1.375 -0.0500005 0.00109989
1.3875 -0.0500005 0.00109989
1.4 -0.0500005 0.00109989
1.4125 -0.0500005 0.00109989
1.425 -0.0500005 0.00109989
1.4375 -0.0500005 0.0010999
1.45 -0.0500005 0.0010999
1.4625 -0.0500005 0.0010999
1.475 -0.0500005 0.0010999
1.4875 -0.0500005 0.0010999
1.5 -0.0500006 0.0010999
1.5125 -0.0500006 0.0010999
1.525 -0.0500006 0.0010999
1.5375 -0.0500006 0.0010999
1.55 -0.0500006 0.0010999
1.5625 -0.0500006 0.0010999
1.575 -0.0500006 0.0010999
1.5875 -0.0500006 0.0010999
1.6 -0.0500006 0.0010999
1.6125 -0.0500006 0.00109991
1.625 -0.0500006 0.00109991
1.6375 -0.0500006 0.00109991
1.65 -0.0500006 0.00109991
1.6625 -0.0500006 0.00109991
1.675 -0.0500006 0.00109991
1.6875 -0.0500006 0.00109991
1.7 -0.0500006 0.00109991
1.7125 -0.0500006 0.00109991
1.725 -0.0500006 0.00109991
1.7375 -0.0500006 0.00109991
1.75 -0.0500006 0.00109991
1.7625 -0.0500006 0.00109992
1.775 -0.0500006 0.00109992
1.7875 -0.0500006 0.00109992
1.8 -0.0500006 0.00109992
1.8125 -0.0500006 0.00109992
1.825 -0.0500006 0.00109992
1.8375 -0.0500006 0.00109992
1.85 -0.0500006 0.00109992
1.8625 -0.0500006 0.00109992
1.875 -0.0500006 0.00109992
1.8875 -0.0500006 0.00109992
1.9 -0.0500006 0.00109992
1.9125 -0.0500006 0.00109993
1.925 -0.0500006 0.00109993
1.9375 -0.0500006 0.00109993
1.95 -0.0500006 0.00109993
1.9625 -0.0500006 0.00109993
1.975 -0.0500006 0.00109993
1.9875 -0.0500006 0.00109993
2 -0.0500006 0.00109993
2.0125 -0.0500006 0.00109993
2.025 -0.0500006 0.00109993
2.0375 -0.0500006 0.00109993
2.05 -0.0500006 0.00109993
2.0625 -0.0500006 0.00109994
2.075 -0.0500006 0.00109994
2.0875 -0.0500006 0.00109994
2.1 -0.0500006 0.00109994
2.1125 -0.0500006 0.00109994
2.125 -0.0500006 0.00109994
2.1375 -0.0500006 0.00109994
2.15 -0.0500006 0.00109994
2.1625 -0.0500006 0.00109994
2.175 -0.0500007 0.00109994
2.1875 -0.0500007 0.00109994
2.2 -0.0500007 0.00109994
2.2125 -0.0500007 0.00109994
2.225 -0.0500007 0.00109995
2.2375 -0.0500007 0.00109995
2.25 -0.0500007 0.00109995
2.2625 -0.0500007 0.00109995
2.275 -0.0500007 0.00109995
2.2875 -0.0500007 0.00109995
2.3 -0.0500007 0.00109995
2.3125 -0.0500007 0.00109995
2.325 -0.0500007 0.00109995
2.3375 -0.0500007 0.00109995
2.35 -0.0500007 0.00109995
2.3625 -0.0500007 0.00109995
2.375 -0.0500007 0.00109995
2.3875 -0.0500007 0.00109996
2.4 -0.0500007 0.00109996
2.4125 -0.0500007 0.00109996
2.425 -0.0500007 0.00109996
2.4375 -0.0500007 0.00109996
2.45 -0.0500007 0.00109996
2.4625 -0.0500007 0.00109996
2.475 -0.0500007 0.00109996
2.4875 -0.0500007 0.00109996
2.5 -0.0500007 0.00109996
2.5125 -0.0500007 0.00109996
2.525 -0.0500007 0.00109996
2.5375 -0.0500007 0.00109996
2.55 -0.0500007 0.00109996
2.5625 -0.0500007 0.00109997
2.575 -0.0500007 0.00109997
2.5875 -0.0500007 0.00109997
2.6 -0.0500007 0.00109997
2.6125 -0.0500007 0.00109997
2.625 -0.0500007 0.00109997
2.6375 -0.0500007 0.00109997
2.65 -0.0500007 0.00109997
2.6625 -0.0500007 0.00109997
2.675 -0.0500007 0.00109997
2.6875 -0.0500007 0.00109997
2.7 -0.0500007 0.00109997
2.7125 -0.0500007 0.00109997
2.725 -0.0500007 0.00109997
2.7375 -0.0500007 0.00109997
2.75 -0.0500007 0.00109997
2.7625 -0.0500007 0.00109998
2.775 -0.0500007 0.00109998
2.7875 -0.0500007 0.00109998
2.8 -0.0500007 0.00109998
2.8125 -0.0500007 0.00109998
2.825 -0.0500007 0.00109998
2.8375 -0.0500007 0.00109998
2.85 -0.0500007 0.00109998
2.8625 -0.0500008 0.00109998
2.875 -0.0500008 0.00109998
2.8875 -0.0500008 0.00109998
2.9 -0.0500008 0.00109998
2.9125 -0.0500008 0.00109998
2.925 -0.0500008 0.00109998
2.9375 -0.0500008 0.00109998
2.95 -0.0500008 0.00109998
2.9625 -0.0500008 0.00109998
2.975 -0.0500008 0.00109998
2.9875 -0.0500008 0.00109998
3 -0.0500008 0.00109998
3.0125 -0.0500008 0.00109999
3.025 -0.0500008 0.00109999
3.0375 -0.0500008 0.00109999
3.05 -0.0500008 0.00109999
3.0625 -0.0500008 0.00109999
3.075 -0.0500008 0.00109999
3.0875 -0.0500008 0.00109999
3.1 -0.0500008 0.00109999
3.1125 -0.0500008 0.00109999
3.125 -0.0500008 0.00109999
3.1375 -0.0500008 0.00109999
3.15 -0.0500008 0.00109999
3.1625 -0.0500008 0.00109999
3.175 -0.0500008 0.00109999
3.1875 -0.0500008 0.00109999
3.2 -0.0500008 0.00109999
3.2125 -0.0500008 0.00109999
3.225 -0.0500008 0.00109999
3.2375 -0.0500008 0.00109999
3.25 -0.0500008 0.00109999
3.2625 -0.0500008 0.00109999
3.275 -0.0500008 0.00109999
3.2875 -0.0500008 0.00109999
3.3 -0.0500008 0.00109999
3.3125 -0.0500008 0.00109999
3.325 -0.0500008 0.00109999
3.3375 -0.0500008 0.00109999
3.35 -0.0500008 0.0011
3.3625 -0.0500008 0.0011
[...]
POINT_DATA 15780
 FIELD attributes 1
U 3 15780 float
30.0002 	-7.01786e-06 	-6.30589e-06 30.0002 	-6.84337e-06 	-6.51455e-06 30.0002 	-6.66889e-06 	-6.72322e-06 30.0002 	-6.4944e-06 	-6.93189e-06 30.0002 	-6.31992e-06 	-7.14056e-06 30.0002 	-6.14544e-06 	-7.34923e-06 30.0004 	-1.23851e-05 	-1.26098e-06 30.0004 	-1.23851e-05 	-1.26098e-06 30.0004 	-1.23851e-05 	-1.26098e-06 30.0004 	-1.23851e-05 	-1.26098e-06 30.0002 	-7.05015e-08 	-6.84368e-06 30.0005 	-1.07091e-05 	-1.68702e-06 30.0005 	-1.0709e-05 	-1.68702e-06 30.0005 	-1.0709e-05 	-1.68702e-06 30.0005 	-1.0709e-05 	-1.68702e-06 30.0002 	-7.21917e-08 	-6.59609e-06 30.0005 	-9.9585e-06 	-2.0802e-06 30.0005 	-9.95849e-06 	-2.0802e-06 30.0005 	-9.95848e-06 	-2.0802e-06 30.0005 	-9.95848e-06 	-2.08019e-06 30.0003 	-4.59311e-06 	-6.24727e-06 30.0005 	-9.69175e-06 	-2.34892e-06 30.0005 	-9.69174e-06 	-2.34892e-06 30.0005 	-9.69173e-06 	-2.34892e-06 30.0005 	-9.69173e-06 	-2.34892e-06 30.0003 	-7.58114e-08 	-6.57616e-06 30.0005 	-9.5236e-06 	-2.49779e-06 30.0005 	-9.52359e-06 	-2.49779e-06 30.0005 	-9.52358e-06 	-2.49778e-06 30.0005 	-9.52357e-06 	-2.49778e-06 30.0003 	-7.75823e-08 	-6.52627e-06 30.0005 	-9.38725e-06 	-2.55603e-06 30.0005 	-9.38724e-06 	-2.55603e-06 30.0005 	-9.38723e-06 	-2.55603e-06 30.0005 	-9.38722e-06 	-2.55603e-06 30.0003 	-4.26697e-06 	-6.08529e-06 30.0005 	-9.27984e-06 	-2.55826e-06 30.0005 	-9.27983e-06 	-2.55826e-06 30.0005 	-9.27982e-06 	-2.55826e-06 30.0005 	-9.27981e-06 	-2.55826e-06 30.0003 	-4.19938e-06 	-5.9779e-06 30.0006 	-9.18768e-06 	-2.5304e-06 30.0006 	-9.18767e-06 	-2.53039e-06 30.0006 	-9.18766e-06 	-2.53039e-06 30.0006 	-9.18766e-06 	-2.53039e-06 30.0003 	-8.29161e-08 	-6.20127e-06 30.0006 	-9.09763e-06 	-2.48115e-06 30.0006 	-9.09762e-06 	-2.48115e-06 30.0006 	-9.09761e-06 	-2.48115e-06 30.0006 	-9.0976e-06 	-2.48114e-06 30.0003 	-8.46719e-08 	-6.05424e-06 30.0006 	-9.00517e-06 	-2.41358e-06 30.0006 	-9.00516e-06 	-2.41358e-06 30.0006 	-9.00515e-06 	-2.41358e-06 30.0006 	-9.00515e-06 	-2.41357e-06 30.0003 	-8.64256e-08 	-5.88782e-06 30.0006 	-8.90903e-06 	-2.3297e-06 30.0006 	-8.90902e-06 	-2.3297e-06 30.0006 	-8.90901e-06 	-2.3297e-06 30.0006 	-8.90901e-06 	-2.3297e-06 30.0003 	-3.93799e-06 	-5.36347e-06 30.0006 	-8.80899e-06 	-2.23272e-06 30.0006 	-8.80898e-06 	-2.23272e-06 30.0006 	-8.80897e-06 	-2.23272e-06 30.0006 	-8.80897e-06 	-2.23271e-06 30.0003 	-3.86421e-06 	-5.16476e-06 30.0006 	-8.70473e-06 	-2.12411e-06 30.0006 	-8.70472e-06 	-2.12411e-06 30.0006 	-8.70471e-06 	-2.12411e-06 30.0006 	-8.70471e-06 	-2.12411e-06 30.0003 	-9.16915e-08 	-5.28458e-06 30.0006 	-8.59652e-06 	-2.00506e-06 30.0006 	-8.59652e-06 	-2.00506e-06 30.0006 	-8.59651e-06 	-2.00506e-06 30.0006 	-8.5965e-06 	-2.00505e-06 30.0003 	-3.7046e-06 	-4.7194e-06 30.0007 	-8.48515e-06 	-1.87667e-06 30.0007 	-8.48514e-06 	-1.87666e-06 30.0007 	-8.48514e-06 	-1.87666e-06 30.0007 	-8.48513e-06 	-1.87666e-06 30.0003 	-3.61949e-06 	-4.47431e-06 30.0007 	-8.3718e-06 	-1.73882e-06 30.0007 	-8.3718e-06 	-1.73882e-06 30.0007 	-8.37179e-06 	-1.73882e-06 30.0007 	-8.37179e-06 	-1.73881e-06 30.0004 	-9.68991e-08 	-4.54319e-06 30.0007 	-8.26021e-06 	-1.59802e-06 30.0007 	-8.26021e-06 	-1.59802e-06 30.0007 	-8.2602e-06 	-1.59802e-06 30.0007 	-8.2602e-06 	-1.59802e-06 30.0004 	-9.86216e-08 	-4.27124e-06 30.0007 	-8.14819e-06 	-1.46322e-06 30.0007 	-8.14818e-06 	-1.46322e-06 30.0007 	-8.14818e-06 	-1.46322e-06 30.0007 	-8.14817e-06 	-1.46322e-06 30.0004 	-1.00337e-07 	-3.98926e-06 30.0007 	-8.02009e-06 	-1.32071e-06 30.0007 	-8.02009e-06 	-1.32071e-06 30.0007 	-8.02008e-06 	-1.32071e-06 30.0007 	-8.02008e-06 	-1.32071e-06 30.0004 	-3.25107e-06 	-3.37795e-06 30.0007 	-7.88128e-06 	-1.168e-06 30.0007 	-7.88127e-06 	-1.168e-06 30.0007 	-7.88127e-06 	-1.16799e-06 30.0007 	-7.88127e-06 	-1.16799e-06 30.0004 	-1.03734e-07 	-3.40287e-06 30.0007 	-7.74534e-06 	-1.00787e-06 30.0007 	-7.74533e-06 	-1.00787e-06 30.0007 	-7.74533e-06 	-1.00787e-06 30.0007 	-7.74533e-06 	-1.00787e-06 30.0004 	-1.05431e-07 	-3.10326e-06 30.0007 	-7.61118e-06 	-8.41854e-07 30.0007 	-7.61118e-06 	-8.41854e-07 30.0007 	-7.61118e-06 	-8.41853e-07 30.0007 	-7.61118e-06 	-8.41853e-07 30.0004 	-2.93188e-06 	-2.48788e-06 30.0007 	-7.4754e-06 	-6.70202e-07 30.0007 	-7.4754e-06 	-6.70202e-07 30.0007 	-7.47539e-06 	-6.70202e-07 30.0007 	-7.47539e-06 	-6.70201e-07 30.0004 	-2.82539e-06 	-2.18312e-06 30.0007 	-7.34324e-06 	-4.97047e-07 30.0007 	-7.34323e-06 	-4.97047e-07 30.0007 	-7.34323e-06 	-4.97047e-07 30.0007 	-7.34323e-06 	-4.97047e-07 30.0004 	-1.10478e-07 	-2.1711e-06 30.0007 	-7.21541e-06 	-3.17322e-07 30.0007 	-7.21541e-06 	-3.17322e-07 30.0007 	-7.21541e-06 	-3.17322e-07 30.0007 	-7.21541e-06 	-3.17322e-07 30.0004 	-1.12139e-07 	-1.85336e-06 30.0007 	-7.09865e-06 	-1.38218e-07 30.0007 	-7.09865e-06 	-1.38218e-07 30.0007 	-7.09865e-06 	-1.38218e-07 30.0007 	-7.09865e-06 	-1.38218e-07 30.0004 	-1.13786e-07 	-1.54902e-06 30.0007 	-6.98531e-06 	4.08435e-08 30.0007 	-6.98531e-06 	4.08435e-08 30.0007 	-6.98531e-06 	4.08435e-08 30.0007 	-6.98531e-06 	4.08435e-08 30.0004 	-2.4389e-06 	-9.58506e-07 30.0007 	-6.8717e-06 	2.14662e-07 30.0007 	-6.8717e-06 	2.14662e-07 30.0007 	-6.8717e-06 	2.14662e-07 30.0007 	-6.8717e-06 	2.14662e-07 30.0004 	-2.34728e-06 	-6.82305e-07 30.0007 	-6.75352e-06 	3.90711e-07 30.0007 	-6.75352e-06 	3.90711e-07 30.0007 	-6.75352e-06 	3.90711e-07 30.0007 	-6.75352e-06 	3.90711e-07 30.0004 	-1.18715e-07 	-7.09768e-07 30.0007 	-6.64298e-06 	5.64359e-07 30.0007 	-6.64298e-06 	5.64359e-07 30.0007 	-6.64299e-06 	5.64359e-07 30.0007 	-6.64299e-06 	5.64359e-07 30.0004 	-2.16692e-06 	-1.45448e-07 30.0007 	-6.536e-06 	7.27383e-07 30.0007 	-6.536e-06 	7.27383e-07 30.0007 	-6.536e-06 	7.27383e-07 30.0007 	-6.536e-06 	7.27383e-07 30.0004 	-2.08125e-06 	1.13832e-07 30.0007 	-6.43069e-06 	8.78827e-07 30.0007 	-6.43069e-06 	8.78827e-07 30.0007 	-6.4307e-06 	8.78827e-07 30.0007 	-6.4307e-06 	8.78828e-07 30.0004 	-1.23617e-07 	7.05816e-08 30.0007 	-6.32311e-06 	1.01777e-06 30.0007 	-6.32312e-06 	1.01778e-06 30.0007 	-6.32312e-06 	1.01778e-06 30.0007 	-6.32312e-06 	1.01778e-06 30.0004 	-1.25209e-07 	3.15811e-07 30.0007 	-6.21673e-06 	1.1406e-06 30.0007 	-6.21674e-06 	1.1406e-06 30.0007 	-6.21674e-06 	1.1406e-06 30.0007 	-6.21674e-06 	1.14061e-06 30.0004 	-1.26791e-07 	5.45527e-07 30.0007 	-6.11546e-06 	1.2563e-06 30.0007 	-6.11546e-06 	1.2563e-06 30.0007 	-6.11547e-06 	1.2563e-06 30.0007 	-6.11547e-06 	1.2563e-06 30.0004 	-1.76444e-06 	1.03207e-06 30.0007 	-6.02274e-06 	1.37126e-06 30.0007 	-6.02274e-06 	1.37126e-06 30.0007 	-6.02274e-06 	1.37126e-06 30.0007 	-6.02275e-06 	1.37126e-06 30.0004 	-1.29891e-07 	9.36946e-07 30.0007 	-5.94309e-06 	1.48849e-06 30.0007 	-5.94309e-06 	1.48849e-06 30.0007 	-5.9431e-06 	1.48849e-06 30.0007 	-5.9431e-06 	1.48849e-06 30.0004 	-1.31397e-07 	1.10456e-06 30.0007 	-5.87188e-06 	1.59287e-06 30.0007 	-5.87188e-06 	1.59287e-06 30.0007 	-5.87188e-06 	1.59287e-06 30.0007 	-5.87189e-06 	1.59288e-06 30.0004 	-1.59157e-06 	1.53877e-06 30.0007 	-5.80227e-06 	1.6793e-06 30.0007 	-5.80228e-06 	1.6793e-06 30.0007 	-5.80228e-06 	1.6793e-06 30.0007 	-5.80228e-06 	1.6793e-06 30.0003 	-1.54437e-06 	1.67822e-06 30.0007 	-5.7342e-06 	1.75009e-06 30.0007 	-5.7342e-06 	1.75009e-06 30.0007 	-5.73421e-06 	1.75009e-06 30.0007 	-5.73421e-06 	1.7501e-06 30.0003 	-1.36114e-07 	1.52474e-06 30.0006 	-5.66907e-06 	1.80979e-06 30.0006 	-5.66907e-06 	1.8098e-06 30.0006 	-5.66908e-06 	1.8098e-06 30.0006 	-5.66908e-06 	1.8098e-06 30.0003 	-1.37674e-07 	1.63228e-06 30.0006 	-5.60899e-06 	1.85993e-06 30.0006 	-5.609e-06 	1.85993e-06 30.0006 	-5.609e-06 	1.85993e-06 30.0006 	-5.60901e-06 	1.85993e-06 30.0003 	-1.39149e-07 	1.72401e-06 30.0006 	-5.55471e-06 	1.90041e-06 30.0006 	-5.55472e-06 	1.90041e-06 30.0006 	-5.55472e-06 	1.90042e-06 30.0006 	-5.55473e-06 	1.90042e-06 30.0003 	-1.38908e-06 	2.07104e-06 30.0006 	-5.5059e-06 	1.93108e-06 30.0006 	-5.5059e-06 	1.93108e-06 30.0006 	-5.50591e-06 	1.93108e-06 30.0006 	-5.50591e-06 	1.93109e-06 30.0003 	-1.36206e-06 	2.13097e-06 30.0006 	-5.46219e-06 	1.95182e-06 30.0006 	-5.46219e-06 	1.95182e-06 30.0006 	-5.46219e-06 	1.95182e-06 30.0006 	-5.4622e-06 	1.95182e-06 30.0003 	-1.43215e-07 	1.90827e-06 30.0006 	-5.4234e-06 	1.96277e-06 30.0006 	-5.42341e-06 	1.96277e-06 30.0006 	-5.42341e-06 	1.96277e-06 30.0006 	-5.42342e-06 	1.96277e-06 30.0003 	-1.32369e-06 	2.20767e-06 30.0006 	-5.38946e-06 	1.9643e-06 30.0006 	-5.38947e-06 	1.9643e-06 30.0006 	-5.38947e-06 	1.9643e-06 30.0006 	-5.38947e-06 	1.9643e-06 30.0003 	-1.31192e-06 	2.22555e-06 30.0006 	-5.36031e-06 	1.9569e-06 30.0006 	-5.36032e-06 	1.95691e-06 30.0006 	-5.36032e-06 	1.95691e-06 30.0006 	-5.36032e-06 	1.95691e-06 30.0003 	-1.47133e-07 	1.96618e-06 30.0005 	-5.33588e-06 	1.94111e-06 30.0005 	-5.33589e-06 	1.94111e-06 30.0005 	-5.33589e-06 	1.94111e-06 30.0005 	-5.3359e-06 	1.94111e-06 30.0003 	-1.48408e-07 	1.96058e-06 30.0005 	-5.31589e-06 	1.91792e-06 30.0005 	-5.3159e-06 	1.91792e-06 30.0005 	-5.3159e-06 	1.91792e-06 30.0005 	-5.31591e-06 	1.91792e-06 30.0003 	-1.49628e-07 	1.94425e-06 30.0005 	-5.30031e-06 	1.88799e-06 30.0005 	-5.30031e-06 	1.88799e-06 30.0005 	-5.30032e-06 	1.88799e-06 30.0005 	-5.30032e-06 	1.88799e-06 30.0003 	-1.3094e-06 	2.17901e-06 30.0005 	-5.28899e-06 	1.85189e-06 30.0005 	-5.28899e-06 	1.8519e-06 30.0005 	-5.289e-06 	1.8519e-06 30.0005 	-5.289e-06 	1.8519e-06 30.0003 	-1.5199e-07 	1.88231e-06 30.0005 	-5.28174e-06 	1.81008e-06 30.0005 	-5.28175e-06 	1.81008e-06 30.0005 	-5.28175e-06 	1.81008e-06 30.0005 	-5.28175e-06 	1.81008e-06 30.0003 	-1.53121e-07 	1.83819e-06 30.0005 	-5.2783e-06 	1.76316e-06 30.0005 	-5.2783e-06 	1.76316e-06 30.0005 	-5.27831e-06 	1.76316e-06 30.0005 	-5.27831e-06 	1.76316e-06 30.0003 	-1.34865e-06 	2.0441e-06 30.0005 	-5.27849e-06 	1.71162e-06 30.0005 	-5.2785e-06 	1.71162e-06 30.0005 	-5.2785e-06 	1.71162e-06 30.0005 	-5.2785e-06 	1.71162e-06 30.0003 	-1.36872e-06 	1.98426e-06 30.0005 	-5.28207e-06 	1.65599e-06 30.0005 	-5.28207e-06 	1.65599e-06 30.0005 	-5.28207e-06 	1.65599e-06 30.0005 	-5.28208e-06 	1.656e-06 30.0002 	-1.56351e-07 	1.66283e-06 30.0005 	-5.28887e-06 	1.59668e-06 30.0005 	-5.28887e-06 	1.59668e-06 30.0005 	-5.28887e-06 	1.59668e-06 30.0005 	-5.28888e-06 	1.59668e-06 30.0002 	-1.57406e-07 	1.59258e-06 30.0004 	-5.29881e-06 	1.53416e-06 30.0004 	-5.29882e-06 	1.53416e-06 30.0004 	-5.29882e-06 	1.53416e-06 30.0004 	-5.29882e-06 	1.53416e-06 30.0002 	-1.58483e-07 	1.51771e-06 30.0004 	-5.31177e-06 	1.46889e-06 30.0004 	-5.31177e-06 	1.46889e-06 30.0004 	-5.31177e-06 	1.46889e-06 30.0004 	-5.31178e-06 	1.46889e-06 30.0002 	-1.4804e-06 	1.69064e-06 30.0004 	-5.32733e-06 	1.40145e-06 30.0004 	-5.32733e-06 	1.40145e-06 30.0004 	-5.32734e-06 	1.40145e-06 30.0004 	-5.32734e-06 	1.40145e-06 30.0002 	-1.51493e-06 	1.60715e-06 30.0004 	-5.34525e-06 	1.3322e-06 30.0004 	-5.34525e-06 	1.3322e-06 30.0004 	-5.34525e-06 	1.3322e-06 30.0004 	-5.34526e-06 	1.3322e-06 30.0002 	-1.61753e-07 	1.27189e-06 30.0004 	-5.36526e-06 	1.26149e-06 30.0004 	-5.36526e-06 	1.26149e-06 30.0004 	-5.36526e-06 	1.26149e-06 30.0004 	-5.36527e-06 	1.26149e-06 30.0002 	-1.59026e-06 	1.43251e-06 30.0004 	-5.3871e-06 	1.18981e-06 30.0004 	-5.3871e-06 	1.18981e-06 30.0004 	-5.3871e-06 	1.18981e-06 30.0004 	-5.3871e-06 	1.18981e-06 30.0002 	-1.63075e-06 	1.34244e-06 30.0004 	-5.41074e-06 	1.11749e-06 30.0004 	-5.41075e-06 	1.1175e-06 30.0004 	-5.41075e-06 	1.1175e-06 30.0004 	-5.41075e-06 	1.1175e-06 30.0002 	-1.64785e-07 	1.00611e-06 30.0004 	-5.43588e-06 	1.04482e-06 30.0004 	-5.43588e-06 	1.04482e-06 30.0004 	-5.43588e-06 	1.04482e-06 30.0004 	-5.43589e-06 	1.04482e-06 30.0002 	-1.65736e-07 	9.15638e-07 30.0004 	-5.46154e-06 	9.72278e-07 30.0004 	-5.46155e-06 	9.72278e-07 30.0004 	-5.46155e-06 	9.72279e-07 30.0004 	-5.46155e-06 	9.72279e-07 30.0002 	-1.66642e-07 	8.25015e-07 30.0004 	-5.48761e-06 	8.99493e-07 30.0004 	-5.48761e-06 	8.99494e-07 30.0004 	-5.48762e-06 	8.99494e-07 30.0004 	-5.48762e-06 	8.99494e-07 30.0002 	-1.80767e-06 	9.75438e-07 30.0004 	-5.51443e-06 	8.25965e-07 30.0004 	-5.51443e-06 	8.25965e-07 30.0004 	-5.51443e-06 	8.25965e-07 30.0004 	-5.51443e-06 	8.25966e-07 30.0002 	-1.6836e-07 	6.43651e-07 30.0003 	-5.54419e-06 	7.52006e-07 30.0003 	-5.5442e-06 	7.52006e-07 30.0003 	-5.5442e-06 	7.52006e-07 30.0003 	-5.5442e-06 	7.52007e-07 30.0002 	-1.69185e-07 	5.52655e-07 30.0003 	-5.57867e-06 	6.77461e-07 30.0003 	-5.57867e-06 	6.77461e-07 30.0003 	-5.57868e-06 	6.77461e-07 30.0003 	-5.57868e-06 	6.77461e-07 30.0002 	-1.95605e-06 	7.01328e-07 30.0003 	-5.61554e-06 	6.04394e-07 30.0003 	-5.61554e-06 	6.04394e-07 30.0003 	-5.61555e-06 	6.04394e-07 30.0003 	-5.61555e-06 	6.04394e-07 30.0002 	-2.00824e-06 	6.11699e-07 30.0003 	-5.65161e-06 	5.3468e-07 30.0003 	-5.65161e-06 	5.3468e-07 30.0003 	-5.65161e-06 	5.3468e-07 30.0003 	-5.65162e-06 	5.3468e-07 30.0002 	-1.71669e-07 	2.80963e-07 30.0003 	-5.68272e-06 	4.67656e-07 30.0003 	-5.68272e-06 	4.67656e-07 30.0003 	-5.68272e-06 	4.67656e-07 30.0003 	-5.68272e-06 	4.67656e-07 30.0002 	-1.72492e-07 	1.97347e-07 30.0003 	-5.71112e-06 	4.0321e-07 30.0003 	-5.71112e-06 	4.0321e-07 30.0003 	-5.71112e-06 	4.03211e-07 30.0003 	-5.71112e-06 	4.03211e-07 30.0002 	-1.73285e-07 	1.16415e-07 30.0003 	-5.73929e-06 	3.39241e-07 30.0003 	-5.73929e-06 	3.39241e-07 30.0003 	-5.73929e-06 	3.39241e-07 30.0003 	-5.7393e-06 	3.39242e-07 30.0002 	-2.20149e-06 	2.74097e-07 30.0003 	-5.76727e-06 	2.75281e-07 30.0003 	-5.76728e-06 	2.75281e-07 30.0003 	-5.76728e-06 	2.75281e-07 30.0003 	-5.76728e-06 	2.75281e-07 30.0002 	-2.24841e-06 	1.96355e-07 30.0003 	-5.79401e-06 	2.10794e-07 30.0003 	-5.79401e-06 	2.10794e-07 30.0003 	-5.79401e-06 	2.10794e-07 30.0003 	-5.79401e-06 	2.10794e-07 30.0002 	-1.75445e-07 	-1.09134e-07 30.0003 	-5.82198e-06 	1.48781e-07 30.0003 	-5.82198e-06 	1.48781e-07 30.0003 	-5.82198e-06 	1.48781e-07 30.0003 	-5.82198e-06 	1.48781e-07 30.0002 	-2.34217e-06 	4.46618e-08 30.0003 	-5.85125e-06 	8.99802e-08 30.0003 	-5.85125e-06 	8.99802e-08 30.0003 	-5.85125e-06 	8.99802e-08 30.0003 	-5.85125e-06 	8.99802e-08 30.0002 	-2.38947e-06 	-2.91101e-08 30.0003 	-5.88167e-06 	3.48175e-08 30.0003 	-5.88167e-06 	3.48175e-08 30.0003 	-5.88167e-06 	3.48175e-08 30.0003 	-5.88167e-06 	3.48175e-08 30.0002 	-1.77431e-07 	-3.30763e-07 30.0003 	-5.91338e-06 	-1.70721e-08 30.0003 	-5.91338e-06 	-1.70721e-08 30.0003 	-5.91338e-06 	-1.70721e-08 30.0003 	-5.91338e-06 	-1.70721e-08 30.0002 	-1.78051e-07 	-4.01799e-07 30.0003 	-5.94649e-06 	-6.90544e-08 30.0003 	-5.94649e-06 	-6.90544e-08 30.0003 	-5.94649e-06 	-6.90544e-08 30.0003 	-5.94649e-06 	-6.90544e-08 30.0002 	-1.78657e-07 	-4.67072e-07 30.0003 	-5.97847e-06 	-1.23324e-07 30.0003 	-5.97847e-06 	-1.23324e-07 30.0003 	-5.97847e-06 	-1.23324e-07 30.0003 	-5.97847e-06 	-1.23324e-07 30.0002 	-2.58098e-06 	-3.01388e-07 30.0003 	-6.00626e-06 	-1.77963e-07 30.0003 	-6.00625e-06 	-1.77963e-07 30.0003 	-6.00625e-06 	-1.77963e-07 30.0003 	-6.00625e-06 	-1.77963e-07 30.0002 	-1.7985e-07 	-5.84883e-07 30.0003 	-6.03039e-06 	-2.2922e-07 30.0003 	-6.03039e-06 	-2.2922e-07 30.0003 	-6.03039e-06 	-2.2922e-07 30.0003 	-6.03039e-06 	-2.2922e-07 30.0002 	-1.80442e-07 	-6.42148e-07 30.0003 	-6.05362e-06 	-2.76185e-07 30.0003 	-6.05362e-06 	-2.76185e-07 30.0003 	-6.05362e-06 	-2.76185e-07 30.0003 	-6.05362e-06 	-2.76185e-07 30.0002 	-2.70905e-06 	-4.78991e-07 30.0003 	-6.07748e-06 	-3.19667e-07 30.0003 	-6.07748e-06 	-3.19667e-07 30.0003 	-6.07748e-06 	-3.19667e-07 30.0003 	-6.07748e-06 	-3.19667e-07 30.0002 	-2.75008e-06 	-5.34032e-07 30.0003 	-6.10169e-06 	-3.61198e-07 30.0003 	-6.10169e-06 	-3.61198e-07 30.0003 	-6.10168e-06 	-3.61198e-07 30.0003 	-6.10168e-06 	-3.61198e-07 30.0002 	-1.82171e-07 	-8.03784e-07 30.0003 	-6.12572e-06 	-4.01395e-07 30.0003 	-6.12571e-06 	-4.01395e-07 30.0003 	-6.12571e-06 	-4.01395e-07 30.0003 	-6.12571e-06 	-4.01395e-07 30.0001 	-1.82715e-07 	-8.53104e-07 30.0003 	-6.1491e-06 	-4.40387e-07 30.0003 	-6.1491e-06 	-4.40387e-07 30.0003 	-6.1491e-06 	-4.40387e-07 30.0003 	-6.1491e-06 	-4.40387e-07 30.0001 	-1.8325e-07 	-9.00313e-07 30.0003 	-6.17176e-06 	-4.78011e-07 30.0003 	-6.17176e-06 	-4.78011e-07 30.0003 	-6.17175e-06 	-4.78011e-07 30.0003 	-6.17175e-06 	-4.78011e-07 30.0001 	-2.90956e-06 	-7.31459e-07 30.0003 	-6.19356e-06 	-5.14221e-07 30.0003 	-6.19356e-06 	-5.14221e-07 30.0003 	-6.19356e-06 	-5.14221e-07 30.0003 	-6.19355e-06 	-5.1422e-07 30.0001 	-2.94744e-06 	-7.75585e-07 30.0003 	-6.21447e-06 	-5.48843e-07 30.0003 	-6.21446e-06 	-5.48843e-07 30.0003 	-6.21446e-06 	-5.48842e-07 30.0003 	-6.21446e-06 	-5.48842e-07 30.0001 	-1.84773e-07 	-1.02952e-06 30.0003 	-6.23455e-06 	-5.8206e-07 30.0003 	-6.23455e-06 	-5.8206e-07 30.0003 	-6.23455e-06 	-5.8206e-07 30.0003 	-6.23454e-06 	-5.8206e-07 30.0001 	-3.02042e-06 	-8.57474e-07 30.0003 	-6.25383e-06 	-6.13902e-07 30.0003 	-6.25383e-06 	-6.13902e-07 30.0003 	-6.25383e-06 	-6.13902e-07 30.0003 	-6.25382e-06 	-6.13902e-07 30.0001 	-3.05552e-06 	-8.95477e-07 30.0003 	-6.27232e-06 	-6.44421e-07 30.0003 	-6.27232e-06 	-6.44421e-07 30.0003 	-6.27232e-06 	-6.44421e-07 30.0003 	-6.27232e-06 	-6.44421e-07 30.0001 	-1.86201e-07 	-1.14083e-06 30.0003 	-6.29004e-06 	-6.73621e-07 30.0003 	-6.29004e-06 	-6.73621e-07 30.0003 	-6.29004e-06 	-6.73621e-07 30.0003 	-6.29004e-06 	-6.73621e-07 30.0001 	-1.86653e-07 	-1.17459e-06 30.0003 	-6.30705e-06 	-7.01438e-07 30.0003 	-6.30705e-06 	-7.01438e-07 30.0003 	-6.30705e-06 	-7.01438e-07 30.0003 	-6.30705e-06 	-7.01438e-07 30.0001 	-1.87108e-07 	-1.20668e-06 30.0003 	-6.32316e-06 	-7.27873e-07 30.0003 	-6.32316e-06 	-7.27873e-07 30.0003 	-6.32316e-06 	-7.27873e-07 30.0003 	-6.32316e-06 	-7.27872e-07 30.0001 	-3.18697e-06 	-1.03099e-06 30.0003 	-6.33844e-06 	-7.5298e-07 30.0003 	-6.33844e-06 	-7.5298e-07 30.0003 	-6.33844e-06 	-7.5298e-07 30.0003 	-6.33844e-06 	-7.52979e-07 30.0001 	-1.87988e-07 	-1.26595e-06 30.0003 	-6.35297e-06 	-7.76947e-07 30.0003 	-6.35297e-06 	-7.76946e-07 30.0003 	-6.35297e-06 	-7.76946e-07 30.0003 	-6.35297e-06 	-7.76946e-07 30.0001 	-1.88402e-07 	-1.29331e-06 30.0003 	-6.36677e-06 	-7.99817e-07 30.0003 	-6.36677e-06 	-7.99816e-07 30.0003 	-6.36677e-06 	-7.99816e-07 30.0003 	-6.36676e-06 	-7.99816e-07 30.0001 	-3.27637e-06 	-1.11604e-06 30.0003 	-6.37985e-06 	-8.21546e-07 30.0003 	-6.37985e-06 	-8.21546e-07 30.0003 	-6.37985e-06 	-8.21545e-07 30.0003 	-6.37985e-06 	-8.21545e-07 30.0001 	-3.30448e-06 	-1.14152e-06 30.0003 	-6.39214e-06 	-8.41977e-07 30.0003 	-6.39213e-06 	-8.41977e-07 30.0003 	-6.39213e-06 	-8.41977e-07 30.0003 	-6.39213e-06 	-8.41976e-07 30.0001 	-1.89595e-07 	-1.36685e-06 30.0003 	-6.40376e-06 	-8.61367e-07 30.0003 	-6.40376e-06 	-8.61367e-07 30.0003 	-6.40376e-06 	-8.61367e-07 30.0003 	-6.40375e-06 	-8.61367e-07 30.0001 	-1.89977e-07 	-1.38872e-06 30.0003 	-6.41469e-06 	-8.79803e-07 30.0003 	-6.41469e-06 	-8.79803e-07 30.0003 	-6.41469e-06 	-8.79802e-07 30.0003 	-6.41469e-06 	-8.79802e-07 30.0001 	-1.90355e-07 	-1.40937e-06 30.0003 	-6.42494e-06 	-8.9729e-07 30.0003 	-6.42494e-06 	-8.9729e-07 30.0003 	-6.42494e-06 	-8.97289e-07 30.0003 	-6.42493e-06 	-8.97289e-07 30.0001 	-3.40878e-06 	-1.23051e-06 30.0003 	-6.43452e-06 	-9.13872e-07 30.0003 	-6.43452e-06 	-9.13872e-07 30.0003 	-6.43452e-06 	-9.13872e-07 30.0003 	-6.43452e-06 	-9.13871e-07 30.0001 	-3.43291e-06 	-1.24984e-06 30.0003 	-6.44341e-06 	-9.29557e-07 30.0003 	-6.44341e-06 	-9.29556e-07 30.0003 	-6.44341e-06 	-9.29556e-07 30.0003 	-6.4434e-06 	-9.29556e-07 30.0001 	-1.9144e-07 	-1.46454e-06 30.0003 	-6.45167e-06 	-9.44411e-07 30.0003 	-6.45167e-06 	-9.4441e-07 30.0003 	-6.45167e-06 	-9.4441e-07 30.0003 	-6.45166e-06 	-9.4441e-07 30.0001 	-3.47898e-06 	-1.28533e-06 30.0003 	-6.45935e-06 	-9.58418e-07 30.0003 	-6.45935e-06 	-9.58418e-07 30.0003 	-6.45935e-06 	-9.58417e-07 30.0003 	-6.45934e-06 	-9.58417e-07 30.0001 	-3.50103e-06 	-1.30159e-06 30.0003 	-6.46644e-06 	-9.71705e-07 30.0003 	-6.46643e-06 	-9.71704e-07 30.0003 	-6.46643e-06 	-9.71704e-07 30.0003 	-6.46643e-06 	-9.71704e-07 30.0001 	-1.924