# vtk DataFile Version 2.0
track0
ASCII
DATASET POLYDATA
POINTS 15780 float
-1.001 -0.05 0.0011
-1.0008 -0.05 0.0011
-1.0006 -0.05 0.0011
-1.0004 -0.05 0.0011
-1.0002 -0.05 0.0011
-1 -0.05 0.0011
-0.9875 -0.05 0.0011
-0.975 -0.05 0.0011
-0.9625 -0.05 0.0011
-0.95 -0.05 0.0011
-0.9375 -0.05 0.00109999
-0.925 -0.05 0.00109999
-0.9125 -0.05 0.00109999
-0.9 -0.05 0.00109999
-0.8875 -0.05 0.00109999
-0.875 -0.05 0.00109999
-0.8625 -0.05 0.00109999
-0.85 -0.05 0.00109999
-0.8375 -0.05 0.00109998
-0.825 -0.0500001 0.00109998
-0.8125 -0.0500001 0.00109998
-0.8 -0.0500001 0.00109998
-0.7875 -0.0500001 0.00109998
-0.775 -0.0500001 0.00109998
-0.7625 -0.0500001 0.00109998
-0.75 -0.0500001 0.00109998
-0.7375 -0.0500001 0.00109997
-0.725 -0.0500001 0.00109997
-0.7125 -0.0500001 0.00109997
-0.7 -0.0500001 0.00109997
-0.6875 -0.0500001 0.00109997
-0.675 -0.0500001 0.00109997
-0.6625 -0.0500001 0.00109997
-0.65 -0.0500001 0.00109996
-0.6375 -0.0500001 0.00109996
-0.625 -0.0500001 0.00109996
-0.6125 -0.0500001 0.00109996
-0.6 -0.0500001 0.00109996
-0.5875 -0.0500001 0.00109996
-0.575 -0.0500001 0.00109996
-0.5625 -0.0500001 0.00109996
-0.55 -0.0500001 0.00109995
-0.5375 -0.0500001 0.00109995
-0.525 -0.0500001 0.00109995
-0.5125 -0.0500001 0.00109995
-0.5 -0.0500001 0.00109995
-0.4875 -0.0500001 0.00109995
-0.475 -0.0500001 0.00109995
-0.4625 -0.0500001 0.00109994
-0.45 -0.0500002 0.00109994
-0.4375 -0.0500002 0.00109994
-0.425 -0.0500002 0.00109994
-0.4125 -0.0500002 0.00109994
-0.4 -0.0500002 0.00109994
-0.3875 -0.0500002 0.00109994
-0.375 -0.0500002 0.00109994
-0.3625 -0.0500002 0.00109993
-0.35 -0.0500002 0.00109993
-0.3375 -0.0500002 0.00109993
-0.325 -0.0500002 0.00109993
-0.3125 -0.0500002 0.00109993
-0.3 -0.0500002 0.00109993
-0.2875 -0.0500002 0.00109993
-0.275 -0.0500002 0.00109993
-0.2625 -0.0500002 0.00109992
-0.25 -0.0500002 0.00109992
-0.2375 -0.0500002 0.00109992
-0.225 -0.0500002 0.00109992
-0.2125 -0.0500002 0.00109992
-0.2 -0.0500002 0.00109992
-0.1875 -0.0500002 0.00109992
-0.175 -0.0500002 0.00109992
-0.1625 -0.0500002 0.00109991
-0.15 -0.0500002 0.00109991
-0.1375 -0.0500002 0.00109991
-0.125 -0.0500002 0.00109991
-0.1125 -0.0500002 0.00109991
-0.1 -0.0500002 0.00109991
-0.0875 -0.0500002 0.00109991
-0.075 -0.0500002 0.00109991
-0.0625 -0.0500002 0.00109991
-0.05 -0.0500003 0.00109991
-0.0375 -0.0500003 0.0010999
-0.025 -0.0500003 0.0010999
-0.0125 -0.0500003 0.0010999
2.10607e-13 -0.0500003 0.0010999
0.0125 -0.0500003 0.0010999
0.025 -0.0500003 0.0010999
0.0375 -0.0500003 0.0010999
0.05 -0.0500003 0.0010999
0.0625 -0.0500003 0.0010999
0.075 -0.0500003 0.0010999
0.0875 -0.0500003 0.0010999
0.1 -0.0500003 0.00109989
0.1125 -0.0500003 0.00109989
0.125 -0.0500003 0.00109989
0.1375 -0.0500003 0.00109989
0.15 -0.0500003 0.00109989
0.1625 -0.0500003 0.00109989
0.175 -0.0500003 0.00109989
0.1875 -0.0500003 0.00109989
0.2 -0.0500003 0.00109989
0.2125 -0.0500003 0.00109989
0.225 -0.0500003 0.00109989
0.2375 -0.0500003 0.00109989
0.25 -0.0500003 0.00109989
0.2625 -0.0500003 0.00109988
0.275 -0.0500003 0.00109988
0.2875 -0.0500003 0.00109988
0.3 -0.0500003 0.00109988
0.3125 -0.0500003 0.00109988
0.325 -0.0500003 0.00109988
0.3375 -0.0500003 0.00109988
0.35 -0.0500003 0.00109988
0.3625 -0.0500003 0.00109988
0.375 -0.0500003 0.00109988
0.3875 -0.0500003 0.00109988
0.4 -0.0500004 0.00109988
0.4125 -0.0500004 0.00109988
0.425 -0.0500004 0.00109988
0.4375 -0.0500004 0.00109988
0.45 -0.0500004 0.00109988
0.4625 -0.0500004 0.00109988
0.475 -0.0500004 0.00109988
0.4875 -0.0500004 0.00109988
0.5 -0.0500004 0.00109988
0.5125 -0.0500004 0.00109988
0.525 -0.0500004 0.00109988
0.5375 -0.0500004 0.00109988
0.55 -0.0500004 0.00109988
0.5625 -0.0500004 0.00109988
0.575 -0.0500004 0.00109987
0.5875 -0.0500004 0.00109987
0.6 -0.0500004 0.00109987
0.6125 -0.0500004 0.00109987
0.625 -0.0500004 0.00109987
0.6375 -0.0500004 0.00109987
0.65 -0.0500004 0.00109987
0.6625 -0.0500004 0.00109987
0.675 -0.0500004 0.00109987
0.6875 -0.0500004 0.00109987
0.7 -0.0500004 0.00109987
0.7125 -0.0500004 0.00109987
0.725 -0.0500004 0.00109987
0.7375 -0.0500004 0.00109987
0.75 -0.0500004 0.00109987
0.7625 -0.0500004 0.00109987
0.775 -0.0500004 0.00109987
0.7875 -0.0500004 0.00109987
0.8 -0.0500004 0.00109987
0.8125 -0.0500004 0.00109987
0.825 -0.0500004 0.00109987
0.8375 -0.0500004 0.00109987
0.85 -0.0500004 0.00109987
0.8625 -0.0500004 0.00109987
0.875 -0.0500004 0.00109987
0.8875 -0.0500004 0.00109987
0.9 -0.0500004 0.00109987
0.9125 -0.0500005 0.00109988
0.925 -0.0500005 0.00109988
0.9375 -0.0500005 0.00109988
0.95 -0.0500005 0.00109988
0.9625 -0.0500005 0.00109988
0.975 -0.0500005 0.00109988
0.9875 -0.0500005 0.00109988
1 -0.0500005 0.00109988
1.0125 -0.0500005 0.00109988
1.025 -0.0500005 0.00109988
1.0375 -0.0500005 0.00109988
1.05 -0.0500005 0.00109988
1.0625 -0.0500005 0.00109988
1.075 -0.0500005 0.00109988
1.0875 -0.0500005 0.00109988
1.1 -0.0500005 0.00109988
1.1125 -0.0500005 0.00109988
1.125 -0.0500005 0.00109988
1.1375 -0.0500005 0.00109988
1.15 -0.0500005 0.00109988
1.1625 -0.0500005 0.00109988
1.175 -0.0500005 0.00109988
1.1875 -0.0500005 0.00109988
1.2 -0.0500005 0.00109988
1.2125 -0.0500005 0.00109988
1.225 -0.0500005 0.00109988
1.2375 -0.0500005 0.00109989
1.25 -0.0500005 0.00109989
1.2625 -0.0500005 0.00109989
1.275 -0.0500005 0.00109989
1.2875 -0.0500005 0.00109989
1.3 -0.0500005 0.00109989
1.3125 -0.0500005 0.00109989
1.325 -0.0500005 0.00109989
1.3375 -0.0500005 0.00109989
1.35 -0.0500005 0.00109989
1.3625 -0.0500005 0.00109989
1.375 -0.0500005 0.00109989
1.3875 -0.0500005 0.00109989
1.4 -0.0500005 0.00109989
1.4125 -0.0500005 0.00109989
1.425 -0.0500005 0.00109989
1.4375 -0.0500005 0.0010999
1.45 -0.0500005 0.0010999
1.4625 -0.0500005 0.0010999
1.475 -0.0500005 0.0010999
1.4875 -0.0500005 0.0010999
1.5 -0.0500006 0.0010999
1.5125 -0.0500006 0.0010999
1.525 -0.0500006 0.0010999
1.5375 -0.0500006 0.0010999
1.55 -0.0500006 0.0010999
1.5625 -0.0500006 0.0010999
1.575 -0.0500006 0.0010999
1.5875 -0.0500006 0.0010999
1.6 -0.0500006 0.0010999
1.6125 -0.0500006 0.00109991
1.625 -0.0500006 0.00109991
1.6375 -0.0500006 0.00109991
1.65 -0.0500006 0.00109991
1.6625 -0.0500006 0.00109991
1.675 -0.0500006 0.00109991
1.6875 -0.0500006 0.00109991
1.7 -0.0500006 0.00109991
1.7125 -0.0500006 0.00109991
1.725 -0.0500006 0.00109991
1.7375 -0.0500006 0.00109991
1.75 -0.0500006 0.00109991
1.7625 -0.0500006 0.00109992
1.775 -0.0500006 0.00109992
1.7875 -0.0500006 0.00109992
1.8 -0.0500006 0.00109992
1.8125 -0.0500006 0.00109992
1.825 -0.0500006 0.00109992
1.8375 -0.0500006 0.00109992
1.85 -0.0500006 0.00109992
1.8625 -0.0500006 0.00109992
1.875 -0.0500006 0.00109992
1.8875 -0.0500006 0.00109992
1.9 -0.0500006 0.00109992
1.9125 -0.0500006 0.00109993
1.925 -0.0500006 0.00109993
1.9375 -0.0500006 0.00109993
1.95 -0.0500006 0.00109993
1.9625 -0.0500006 0.00109993
1.975 -0.0500006 0.00109993
1.9875 -0.0500006 0.00109993
2 -0.0500006 0.00109993
2.0125 -0.0500006 0.00109993
2.025 -0.0500006 0.00109993
2.0375 -0.0500006 0.00109993
2.05 -0.0500006 0.00109993
2.0625 -0.0500006 0.00109994
2.075 -0.0500006 0.00109994
2.0875 -0.0500006 0.00109994
2.1 -0.0500006 0.00109994
2.1125 -0.0500006 0.00109994
2.125 -0.0500006 0.00109994
2.1375 -0.0500006 0.00109994
2.15 -0.0500006 0.00109994
2.1625 -0.0500006 0.00109994
2.175 -0.0500007 0.00109994
2.1875 -0.0500007 0.00109994
2.2 -0.0500007 0.00109994
2.2125 -0.0500007 0.00109994
2.225 -0.0500007 0.00109995
2.2375 -0.0500007 0.00109995
2.25 -0.0500007 0.00109995
2.2625 -0.0500007 0.00109995
2.275 -0.0500007 0.00109995
2.2875 -0.0500007 0.00109995
2.3 -0.0500007 0.00109995
2.3125 -0.0500007 0.00109995
2.325 -0.0500007 0.00109995
2.3375 -0.0500007 0.00109995
2.35 -0.0500007 0.00109995
2.3625 -0.0500007 0.00109995
2.375 -0.0500007 0.00109995
2.3875 -0.0500007 0.00109996
2.4 -0.0500007 0.00109996
2.4125 -0.0500007 0.00109996
2.425 -0.0500007 0.00109996
2.4375 -0.0500007 0.00109996
2.45 -0.0500007 0.00109996
2.4625 -0.0500007 0.00109996
2.475 -0.0500007 0.00109996
2.4875 -0.0500007 0.00109996
2.5 -0.0500007 0.00109996
2.5125 -0.0500007 0.00109996
2.525 -0.0500007 0.00109996
2.5375 -0.0500007 0.00109996
2.55 -0.0500007 0.00109996
2.5625 -0.0500007 0.00109997
2.575 -0.0500007 0.00109997
2.5875 -0.0500007 0.00109997
2.6 -0.0500007 0.00109997
2.6125 -0.0500007 0.00109997
2.625 -0.0500007 0.00109997
2.6375 -0.0500007 0.00109997
2.65 -0.0500007 0.00109997
2.6625 -0.0500007 0.00109997
2.675 -0.0500007 0.00109997
2.6875 -0.0500007 0.00109997
2.7 -0.0500007 0.00109997
2.7125 -0.0500007 0.00109997
2.725 -0.0500007 0.00109997
2.7375 -0.0500007 0.00109997
2.75 -0.0500007 0.00109997
2.7625 -0.0500007 0.00109998
2.775 -0.0500007 0.00109998
2.7875 -0.0500007 0.00109998
2.8 -0.0500007 0.00109998
2.8125 -0.0500007 0.00109998
2.825 -0.0500007 0.00109998
2.8375 -0.0500007 0.00109998
2.85 -0.0500007 0.00109998
2.8625 -0.0500008 0.00109998
2.875 -0.0500008 0.00109998
2.8875 -0.0500008 0.00109998
2.9 -0.0500008 0.00109998
2.9125 -0.0500008 0.00109998
2.925 -0.0500008 0.00109998
2.9375 -0.0500008 0.00109998
2.95 -0.0500008 0.00109998
2.9625 -0.0500008 0.00109998
2.975 -0.0500008 0.00109998
2.9875 -0.0500008 0.00109998
3 -0.0500008 0.00109998
3.0125 -0.0500008 0.00109999
3.025 -0.0500008 0.00109999
3.0375 -0.0500008 0.00109999
3.05 -0.0500008 0.00109999
3.0625 -0.0500008 0.00109999
3.075 -0.0500008 0.00109999
3.0875 -0.0500008 0.00109999
3.1 -0.0500008 0.00109999
3.1125 -0.0500008 0.00109999
3.125 -0.0500008 0.00109999
3.1375 -0.0500008 0.00109999
3.15 -0.0500008 0.00109999
3.1625 -0.0500008 0.00109999
3.175 -0.0500008 0.00109999
3.1875 -0.0500008 0.00109999
3.2 -0.0500008 0.00109999
3.2125 -0.0500008 0.00109999
3.225 -0.0500008 0.00109999
3.2375 -0.0500008 0.00109999
3.25 -0.0500008 0.00109999
3.2625 -0.0500008 0.00109999
3.275 -0.0500008 0.00109999
3.2875 -0.0500008 0.00109999
3.3 -0.0500008 0.00109999
3.3125 -0.0500008 0.00109999
3.325 -0.0500008 0.00109999
3.3375 -0.0500008 0.00109999
3.35 -0.0500008 0.0011
3.3625 -0.0500008 0.0011
[...]
POINT_DATA 15780
 FIELD attributes 1
U 3 15780 float
30.0002 	-7.01786e-06 	-6.30588e-06 30.0002 	-6.84338e-06 	-6.51455e-06 30.0002 	-6.6689e-06 	-6.72322e-06 30.0002 	-6.49441e-06 	-6.93188e-06 30.0002 	-6.31993e-06 	-7.14055e-06 30.0002 	-6.14544e-06 	-7.34922e-06 30.0004 	-1.23852e-05 	-1.26099e-06 30.0004 	-1.23851e-05 	-1.26099e-06 30.0004 	-1.23851e-05 	-1.26099e-06 30.0004 	-1.23851e-05 	-1.26099e-06 30.0002 	-7.05282e-08 	-6.84368e-06 30.0005 	-1.07091e-05 	-1.68703e-06 30.0005 	-1.07091e-05 	-1.68703e-06 30.0005 	-1.07091e-05 	-1.68703e-06 30.0005 	-1.07091e-05 	-1.68703e-06 30.0002 	-7.22205e-08 	-6.59609e-06 30.0005 	-9.95853e-06 	-2.08021e-06 30.0005 	-9.95852e-06 	-2.08021e-06 30.0005 	-9.95851e-06 	-2.08021e-06 30.0005 	-9.95851e-06 	-2.0802e-06 30.0003 	-4.59312e-06 	-6.24727e-06 30.0005 	-9.69179e-06 	-2.34894e-06 30.0005 	-9.69178e-06 	-2.34893e-06 30.0005 	-9.69177e-06 	-2.34893e-06 30.0005 	-9.69176e-06 	-2.34893e-06 30.0003 	-7.58461e-08 	-6.57616e-06 30.0005 	-9.52364e-06 	-2.4978e-06 30.0005 	-9.52363e-06 	-2.4978e-06 30.0005 	-9.52363e-06 	-2.4978e-06 30.0005 	-9.52362e-06 	-2.4978e-06 30.0003 	-7.76205e-08 	-6.52627e-06 30.0005 	-9.3873e-06 	-2.55605e-06 30.0005 	-9.38729e-06 	-2.55605e-06 30.0005 	-9.38728e-06 	-2.55604e-06 30.0005 	-9.38727e-06 	-2.55604e-06 30.0003 	-4.26699e-06 	-6.08529e-06 30.0005 	-9.27989e-06 	-2.55828e-06 30.0005 	-9.27988e-06 	-2.55828e-06 30.0005 	-9.27987e-06 	-2.55827e-06 30.0005 	-9.27987e-06 	-2.55827e-06 30.0003 	-4.19941e-06 	-5.9779e-06 30.0006 	-9.18775e-06 	-2.53041e-06 30.0006 	-9.18774e-06 	-2.53041e-06 30.0006 	-9.18773e-06 	-2.53041e-06 30.0006 	-9.18772e-06 	-2.53041e-06 30.0003 	-8.29659e-08 	-6.20127e-06 30.0006 	-9.0977e-06 	-2.48117e-06 30.0006 	-9.09769e-06 	-2.48116e-06 30.0006 	-9.09768e-06 	-2.48116e-06 30.0006 	-9.09767e-06 	-2.48116e-06 30.0003 	-8.47252e-08 	-6.05424e-06 30.0006 	-9.00525e-06 	-2.4136e-06 30.0006 	-9.00524e-06 	-2.41359e-06 30.0006 	-9.00523e-06 	-2.41359e-06 30.0006 	-9.00523e-06 	-2.41359e-06 30.0003 	-8.64816e-08 	-5.88783e-06 30.0006 	-8.90911e-06 	-2.32971e-06 30.0006 	-8.90911e-06 	-2.32971e-06 30.0006 	-8.9091e-06 	-2.32971e-06 30.0006 	-8.90909e-06 	-2.32971e-06 30.0003 	-3.93803e-06 	-5.36347e-06 30.0006 	-8.80908e-06 	-2.23273e-06 30.0006 	-8.80907e-06 	-2.23273e-06 30.0006 	-8.80906e-06 	-2.23273e-06 30.0006 	-8.80906e-06 	-2.23273e-06 30.0003 	-3.86425e-06 	-5.16476e-06 30.0006 	-8.70482e-06 	-2.12412e-06 30.0006 	-8.70482e-06 	-2.12412e-06 30.0006 	-8.70481e-06 	-2.12412e-06 30.0006 	-8.7048e-06 	-2.12412e-06 30.0003 	-9.17575e-08 	-5.28458e-06 30.0006 	-8.59663e-06 	-2.00507e-06 30.0006 	-8.59662e-06 	-2.00506e-06 30.0006 	-8.59661e-06 	-2.00506e-06 30.0006 	-8.59661e-06 	-2.00506e-06 30.0003 	-3.70465e-06 	-4.71939e-06 30.0007 	-8.48526e-06 	-1.87667e-06 30.0007 	-8.48525e-06 	-1.87667e-06 30.0007 	-8.48524e-06 	-1.87667e-06 30.0007 	-8.48524e-06 	-1.87667e-06 30.0003 	-3.61954e-06 	-4.47431e-06 30.0007 	-8.37191e-06 	-1.73882e-06 30.0007 	-8.37191e-06 	-1.73882e-06 30.0007 	-8.3719e-06 	-1.73882e-06 30.0007 	-8.3719e-06 	-1.73882e-06 30.0004 	-9.69726e-08 	-4.54318e-06 30.0007 	-8.26032e-06 	-1.59802e-06 30.0007 	-8.26032e-06 	-1.59802e-06 30.0007 	-8.26031e-06 	-1.59802e-06 30.0007 	-8.26031e-06 	-1.59802e-06 30.0004 	-9.86971e-08 	-4.27123e-06 30.0007 	-8.1483e-06 	-1.46322e-06 30.0007 	-8.1483e-06 	-1.46322e-06 30.0007 	-8.14829e-06 	-1.46322e-06 30.0007 	-8.14829e-06 	-1.46322e-06 30.0004 	-1.00414e-07 	-3.98926e-06 30.0007 	-8.02021e-06 	-1.32071e-06 30.0007 	-8.02021e-06 	-1.32071e-06 30.0007 	-8.0202e-06 	-1.32071e-06 30.0007 	-8.0202e-06 	-1.32071e-06 30.0004 	-3.25113e-06 	-3.37794e-06 30.0007 	-7.8814e-06 	-1.168e-06 30.0007 	-7.88139e-06 	-1.168e-06 30.0007 	-7.88139e-06 	-1.16799e-06 30.0007 	-7.88139e-06 	-1.16799e-06 30.0004 	-1.03815e-07 	-3.40287e-06 30.0007 	-7.74546e-06 	-1.00787e-06 30.0007 	-7.74545e-06 	-1.00787e-06 30.0007 	-7.74545e-06 	-1.00787e-06 30.0007 	-7.74545e-06 	-1.00786e-06 30.0004 	-1.05512e-07 	-3.10326e-06 30.0007 	-7.61131e-06 	-8.41852e-07 30.0007 	-7.6113e-06 	-8.41851e-07 30.0007 	-7.6113e-06 	-8.41851e-07 30.0007 	-7.6113e-06 	-8.41851e-07 30.0004 	-2.93193e-06 	-2.48788e-06 30.0007 	-7.47552e-06 	-6.70198e-07 30.0007 	-7.47552e-06 	-6.70198e-07 30.0007 	-7.47552e-06 	-6.70198e-07 30.0007 	-7.47552e-06 	-6.70198e-07 30.0004 	-2.82544e-06 	-2.18312e-06 30.0007 	-7.34336e-06 	-4.97043e-07 30.0007 	-7.34336e-06 	-4.97043e-07 30.0007 	-7.34336e-06 	-4.97043e-07 30.0007 	-7.34336e-06 	-4.97043e-07 30.0004 	-1.10563e-07 	-2.17109e-06 30.0007 	-7.21554e-06 	-3.17318e-07 30.0007 	-7.21554e-06 	-3.17318e-07 30.0007 	-7.21554e-06 	-3.17317e-07 30.0007 	-7.21554e-06 	-3.17317e-07 30.0004 	-1.12226e-07 	-1.85335e-06 30.0007 	-7.09878e-06 	-1.38213e-07 30.0007 	-7.09878e-06 	-1.38213e-07 30.0007 	-7.09878e-06 	-1.38213e-07 30.0007 	-7.09878e-06 	-1.38213e-07 30.0004 	-1.13874e-07 	-1.54901e-06 30.0007 	-6.98544e-06 	4.08505e-08 30.0007 	-6.98544e-06 	4.08505e-08 30.0007 	-6.98544e-06 	4.08505e-08 30.0007 	-6.98544e-06 	4.08505e-08 30.0004 	-2.43895e-06 	-9.585e-07 30.0007 	-6.87184e-06 	2.14669e-07 30.0007 	-6.87184e-06 	2.14669e-07 30.0007 	-6.87184e-06 	2.14669e-07 30.0007 	-6.87184e-06 	2.14669e-07 30.0004 	-2.34734e-06 	-6.82298e-07 30.0007 	-6.75365e-06 	3.9072e-07 30.0007 	-6.75366e-06 	3.9072e-07 30.0007 	-6.75366e-06 	3.9072e-07 30.0007 	-6.75366e-06 	3.9072e-07 30.0004 	-1.18807e-07 	-7.0976e-07 30.0007 	-6.64313e-06 	5.64369e-07 30.0007 	-6.64313e-06 	5.64369e-07 30.0007 	-6.64313e-06 	5.64369e-07 30.0007 	-6.64313e-06 	5.64369e-07 30.0004 	-2.16697e-06 	-1.45439e-07 30.0007 	-6.53614e-06 	7.27394e-07 30.0007 	-6.53614e-06 	7.27394e-07 30.0007 	-6.53614e-06 	7.27394e-07 30.0007 	-6.53614e-06 	7.27394e-07 30.0004 	-2.0813e-06 	1.1384e-07 30.0007 	-6.43083e-06 	8.78838e-07 30.0007 	-6.43083e-06 	8.78838e-07 30.0007 	-6.43084e-06 	8.78838e-07 30.0007 	-6.43084e-06 	8.78838e-07 30.0004 	-1.2371e-07 	7.059e-08 30.0007 	-6.32325e-06 	1.01779e-06 30.0007 	-6.32325e-06 	1.01779e-06 30.0007 	-6.32325e-06 	1.01779e-06 30.0007 	-6.32326e-06 	1.01779e-06 30.0004 	-1.25301e-07 	3.15819e-07 30.0007 	-6.21687e-06 	1.14062e-06 30.0007 	-6.21688e-06 	1.14062e-06 30.0007 	-6.21688e-06 	1.14062e-06 30.0007 	-6.21688e-06 	1.14062e-06 30.0004 	-1.26886e-07 	5.45536e-07 30.0007 	-6.11561e-06 	1.25631e-06 30.0007 	-6.11561e-06 	1.25631e-06 30.0007 	-6.11561e-06 	1.25631e-06 30.0007 	-6.11562e-06 	1.25632e-06 30.0004 	-1.76449e-06 	1.03208e-06 30.0007 	-6.02289e-06 	1.37127e-06 30.0007 	-6.02289e-06 	1.37127e-06 30.0007 	-6.02289e-06 	1.37127e-06 30.0007 	-6.02289e-06 	1.37127e-06 30.0004 	-1.29991e-07 	9.36955e-07 30.0007 	-5.94324e-06 	1.4885e-06 30.0007 	-5.94324e-06 	1.4885e-06 30.0007 	-5.94324e-06 	1.4885e-06 30.0007 	-5.94325e-06 	1.4885e-06 30.0004 	-1.31497e-07 	1.10457e-06 30.0007 	-5.87203e-06 	1.59289e-06 30.0007 	-5.87203e-06 	1.59289e-06 30.0007 	-5.87203e-06 	1.59289e-06 30.0007 	-5.87204e-06 	1.59289e-06 30.0004 	-1.59163e-06 	1.53878e-06 30.0007 	-5.80243e-06 	1.67931e-06 30.0007 	-5.80243e-06 	1.67931e-06 30.0007 	-5.80244e-06 	1.67932e-06 30.0007 	-5.80244e-06 	1.67932e-06 30.0003 	-1.54443e-06 	1.67823e-06 30.0007 	-5.73436e-06 	1.75011e-06 30.0007 	-5.73436e-06 	1.75011e-06 30.0007 	-5.73437e-06 	1.75011e-06 30.0007 	-5.73437e-06 	1.75011e-06 30.0003 	-1.36221e-07 	1.52475e-06 30.0006 	-5.66923e-06 	1.80981e-06 30.0006 	-5.66924e-06 	1.80981e-06 30.0006 	-5.66924e-06 	1.80981e-06 30.0006 	-5.66924e-06 	1.80981e-06 30.0003 	-1.37784e-07 	1.63229e-06 30.0006 	-5.60916e-06 	1.85994e-06 30.0006 	-5.60916e-06 	1.85994e-06 30.0006 	-5.60917e-06 	1.85994e-06 30.0006 	-5.60917e-06 	1.85995e-06 30.0003 	-1.39261e-07 	1.72402e-06 30.0006 	-5.55488e-06 	1.90043e-06 30.0006 	-5.55489e-06 	1.90043e-06 30.0006 	-5.55489e-06 	1.90043e-06 30.0006 	-5.55489e-06 	1.90044e-06 30.0003 	-1.38915e-06 	2.07105e-06 30.0006 	-5.50607e-06 	1.9311e-06 30.0006 	-5.50607e-06 	1.9311e-06 30.0006 	-5.50608e-06 	1.9311e-06 30.0006 	-5.50608e-06 	1.9311e-06 30.0003 	-1.36213e-06 	2.13098e-06 30.0006 	-5.46236e-06 	1.95184e-06 30.0006 	-5.46236e-06 	1.95184e-06 30.0006 	-5.46237e-06 	1.95184e-06 30.0006 	-5.46237e-06 	1.95184e-06 30.0003 	-1.43338e-07 	1.90828e-06 30.0006 	-5.42359e-06 	1.96279e-06 30.0006 	-5.4236e-06 	1.96279e-06 30.0006 	-5.4236e-06 	1.96279e-06 30.0006 	-5.4236e-06 	1.96279e-06 30.0003 	-1.32377e-06 	2.20768e-06 30.0006 	-5.38965e-06 	1.96432e-06 30.0006 	-5.38965e-06 	1.96432e-06 30.0006 	-5.38966e-06 	1.96432e-06 30.0006 	-5.38966e-06 	1.96432e-06 30.0003 	-1.312e-06 	2.22556e-06 30.0006 	-5.3605e-06 	1.95692e-06 30.0006 	-5.36051e-06 	1.95693e-06 30.0006 	-5.36051e-06 	1.95693e-06 30.0006 	-5.36052e-06 	1.95693e-06 30.0003 	-1.47264e-07 	1.96619e-06 30.0005 	-5.33608e-06 	1.94113e-06 30.0005 	-5.33608e-06 	1.94113e-06 30.0005 	-5.33608e-06 	1.94113e-06 30.0005 	-5.33609e-06 	1.94113e-06 30.0003 	-1.48541e-07 	1.96059e-06 30.0005 	-5.31609e-06 	1.91794e-06 30.0005 	-5.3161e-06 	1.91794e-06 30.0005 	-5.3161e-06 	1.91794e-06 30.0005 	-5.3161e-06 	1.91794e-06 30.0003 	-1.49764e-07 	1.94426e-06 30.0005 	-5.30052e-06 	1.88801e-06 30.0005 	-5.30052e-06 	1.88801e-06 30.0005 	-5.30052e-06 	1.88801e-06 30.0005 	-5.30053e-06 	1.88801e-06 30.0003 	-1.30949e-06 	2.17903e-06 30.0005 	-5.2892e-06 	1.85192e-06 30.0005 	-5.2892e-06 	1.85192e-06 30.0005 	-5.28921e-06 	1.85192e-06 30.0005 	-5.28921e-06 	1.85192e-06 30.0003 	-1.52133e-07 	1.88232e-06 30.0005 	-5.28195e-06 	1.8101e-06 30.0005 	-5.28196e-06 	1.8101e-06 30.0005 	-5.28196e-06 	1.8101e-06 30.0005 	-5.28196e-06 	1.8101e-06 30.0003 	-1.53266e-07 	1.8382e-06 30.0005 	-5.27852e-06 	1.76318e-06 30.0005 	-5.27852e-06 	1.76318e-06 30.0005 	-5.27853e-06 	1.76318e-06 30.0005 	-5.27853e-06 	1.76318e-06 30.0003 	-1.34874e-06 	2.04411e-06 30.0005 	-5.27871e-06 	1.71164e-06 30.0005 	-5.27872e-06 	1.71165e-06 30.0005 	-5.27872e-06 	1.71165e-06 30.0005 	-5.27872e-06 	1.71165e-06 30.0003 	-1.36881e-06 	1.98427e-06 30.0005 	-5.2823e-06 	1.65602e-06 30.0005 	-5.2823e-06 	1.65602e-06 30.0005 	-5.28231e-06 	1.65602e-06 30.0005 	-5.28231e-06 	1.65602e-06 30.0002 	-1.56506e-07 	1.66284e-06 30.0005 	-5.28911e-06 	1.59671e-06 30.0005 	-5.28911e-06 	1.59671e-06 30.0005 	-5.28911e-06 	1.59671e-06 30.0005 	-5.28912e-06 	1.59671e-06 30.0002 	-1.57565e-07 	1.59259e-06 30.0004 	-5.29906e-06 	1.53418e-06 30.0004 	-5.29906e-06 	1.53418e-06 30.0004 	-5.29906e-06 	1.53419e-06 30.0004 	-5.29907e-06 	1.53419e-06 30.0002 	-1.58645e-07 	1.51773e-06 30.0004 	-5.31202e-06 	1.46892e-06 30.0004 	-5.31202e-06 	1.46892e-06 30.0004 	-5.31202e-06 	1.46892e-06 30.0004 	-5.31203e-06 	1.46892e-06 30.0002 	-1.4805e-06 	1.69066e-06 30.0004 	-5.32758e-06 	1.40147e-06 30.0004 	-5.32759e-06 	1.40147e-06 30.0004 	-5.32759e-06 	1.40147e-06 30.0004 	-5.32759e-06 	1.40148e-06 30.0002 	-1.51504e-06 	1.60717e-06 30.0004 	-5.34551e-06 	1.33223e-06 30.0004 	-5.34551e-06 	1.33223e-06 30.0004 	-5.34552e-06 	1.33223e-06 30.0004 	-5.34552e-06 	1.33223e-06 30.0002 	-1.61927e-07 	1.27191e-06 30.0004 	-5.36554e-06 	1.26151e-06 30.0004 	-5.36554e-06 	1.26152e-06 30.0004 	-5.36554e-06 	1.26152e-06 30.0004 	-5.36555e-06 	1.26152e-06 30.0002 	-1.59038e-06 	1.43253e-06 30.0004 	-5.38738e-06 	1.18984e-06 30.0004 	-5.38738e-06 	1.18984e-06 30.0004 	-5.38738e-06 	1.18984e-06 30.0004 	-5.38739e-06 	1.18984e-06 30.0002 	-1.63087e-06 	1.34245e-06 30.0004 	-5.41103e-06 	1.11752e-06 30.0004 	-5.41103e-06 	1.11752e-06 30.0004 	-5.41103e-06 	1.11752e-06 30.0004 	-5.41104e-06 	1.11752e-06 30.0002 	-1.64967e-07 	1.00613e-06 30.0004 	-5.43617e-06 	1.04485e-06 30.0004 	-5.43617e-06 	1.04485e-06 30.0004 	-5.43617e-06 	1.04485e-06 30.0004 	-5.43617e-06 	1.04485e-06 30.0002 	-1.65919e-07 	9.15657e-07 30.0004 	-5.46184e-06 	9.72307e-07 30.0004 	-5.46184e-06 	9.72307e-07 30.0004 	-5.46184e-06 	9.72308e-07 30.0004 	-5.46185e-06 	9.72308e-07 30.0002 	-1.66828e-07 	8.25035e-07 30.0004 	-5.48791e-06 	8.99525e-07 30.0004 	-5.48792e-06 	8.99525e-07 30.0004 	-5.48792e-06 	8.99525e-07 30.0004 	-5.48792e-06 	8.99525e-07 30.0002 	-1.80779e-06 	9.75455e-07 30.0004 	-5.51473e-06 	8.25995e-07 30.0004 	-5.51473e-06 	8.25995e-07 30.0004 	-5.51473e-06 	8.25995e-07 30.0004 	-5.51474e-06 	8.25996e-07 30.0002 	-1.6855e-07 	6.43671e-07 30.0003 	-5.5445e-06 	7.52036e-07 30.0003 	-5.5445e-06 	7.52037e-07 30.0003 	-5.5445e-06 	7.52037e-07 30.0003 	-5.5445e-06 	7.52037e-07 30.0002 	-1.69375e-07 	5.52677e-07 30.0003 	-5.57898e-06 	6.77492e-07 30.0003 	-5.57898e-06 	6.77492e-07 30.0003 	-5.57899e-06 	6.77492e-07 30.0003 	-5.57899e-06 	6.77492e-07 30.0002 	-1.95618e-06 	7.01347e-07 30.0003 	-5.61586e-06 	6.04426e-07 30.0003 	-5.61586e-06 	6.04426e-07 30.0003 	-5.61586e-06 	6.04426e-07 30.0003 	-5.61586e-06 	6.04426e-07 30.0002 	-2.00837e-06 	6.11718e-07 30.0003 	-5.65194e-06 	5.3471e-07 30.0003 	-5.65194e-06 	5.3471e-07 30.0003 	-5.65194e-06 	5.3471e-07 30.0003 	-5.65194e-06 	5.34711e-07 30.0002 	-1.71868e-07 	2.80984e-07 30.0003 	-5.68305e-06 	4.67685e-07 30.0003 	-5.68305e-06 	4.67685e-07 30.0003 	-5.68305e-06 	4.67685e-07 30.0003 	-5.68305e-06 	4.67686e-07 30.0002 	-1.72694e-07 	1.97369e-07 30.0003 	-5.71146e-06 	4.0324e-07 30.0003 	-5.71146e-06 	4.0324e-07 30.0003 	-5.71146e-06 	4.0324e-07 30.0003 	-5.71147e-06 	4.0324e-07 30.0002 	-1.73491e-07 	1.16438e-07 30.0003 	-5.73964e-06 	3.39273e-07 30.0003 	-5.73964e-06 	3.39273e-07 30.0003 	-5.73964e-06 	3.39273e-07 30.0003 	-5.73964e-06 	3.39273e-07 30.0002 	-2.20163e-06 	2.74116e-07 30.0003 	-5.76762e-06 	2.75313e-07 30.0003 	-5.76762e-06 	2.75313e-07 30.0003 	-5.76762e-06 	2.75313e-07 30.0003 	-5.76762e-06 	2.75313e-07 30.0002 	-2.24856e-06 	1.96374e-07 30.0003 	-5.79436e-06 	2.10825e-07 30.0003 	-5.79436e-06 	2.10825e-07 30.0003 	-5.79436e-06 	2.10825e-07 30.0003 	-5.79436e-06 	2.10825e-07 30.0002 	-1.75657e-07 	-1.09111e-07 30.0003 	-5.82235e-06 	1.48811e-07 30.0003 	-5.82235e-06 	1.48811e-07 30.0003 	-5.82235e-06 	1.48811e-07 30.0003 	-5.82235e-06 	1.48811e-07 30.0002 	-2.34232e-06 	4.46832e-08 30.0003 	-5.85161e-06 	9.00122e-08 30.0003 	-5.85161e-06 	9.00122e-08 30.0003 	-5.85161e-06 	9.00122e-08 30.0003 	-5.85161e-06 	9.00122e-08 30.0002 	-2.38963e-06 	-2.90889e-08 30.0003 	-5.88204e-06 	3.48469e-08 30.0003 	-5.88204e-06 	3.48469e-08 30.0003 	-5.88204e-06 	3.48469e-08 30.0003 	-5.88204e-06 	3.48469e-08 30.0002 	-1.7765e-07 	-3.30738e-07 30.0003 	-5.91375e-06 	-1.70425e-08 30.0003 	-5.91375e-06 	-1.70425e-08 30.0003 	-5.91375e-06 	-1.70425e-08 30.0003 	-5.91375e-06 	-1.70425e-08 30.0002 	-1.78271e-07 	-4.01776e-07 30.0003 	-5.94687e-06 	-6.90242e-08 30.0003 	-5.94687e-06 	-6.90242e-08 30.0003 	-5.94687e-06 	-6.90242e-08 30.0003 	-5.94687e-06 	-6.90242e-08 30.0002 	-1.78878e-07 	-4.67049e-07 30.0003 	-5.97884e-06 	-1.2329e-07 30.0003 	-5.97884e-06 	-1.2329e-07 30.0003 	-5.97884e-06 	-1.2329e-07 30.0003 	-5.97884e-06 	-1.2329e-07 30.0002 	-2.58114e-06 	-3.01367e-07 30.0003 	-6.00664e-06 	-1.77932e-07 30.0003 	-6.00664e-06 	-1.77932e-07 30.0003 	-6.00664e-06 	-1.77932e-07 30.0003 	-6.00664e-06 	-1.77932e-07 30.0002 	-1.80072e-07 	-5.84861e-07 30.0003 	-6.03077e-06 	-2.2919e-07 30.0003 	-6.03077e-06 	-2.2919e-07 30.0003 	-6.03077e-06 	-2.2919e-07 30.0003 	-6.03077e-06 	-2.2919e-07 30.0002 	-1.80663e-07 	-6.42125e-07 30.0003 	-6.05401e-06 	-2.76155e-07 30.0003 	-6.05401e-06 	-2.76155e-07 30.0003 	-6.05401e-06 	-2.76155e-07 30.0003 	-6.05401e-06 	-2.76155e-07 30.0002 	-2.70922e-06 	-4.78969e-07 30.0003 	-6.07787e-06 	-3.19635e-07 30.0003 	-6.07787e-06 	-3.19635e-07 30.0003 	-6.07787e-06 	-3.19635e-07 30.0003 	-6.07787e-06 	-3.19635e-07 30.0002 	-2.75024e-06 	-5.34012e-07 30.0003 	-6.10208e-06 	-3.61167e-07 30.0003 	-6.10208e-06 	-3.61167e-07 30.0003 	-6.10208e-06 	-3.61167e-07 30.0003 	-6.10208e-06 	-3.61167e-07 30.0002 	-1.824e-07 	-8.03762e-07 30.0003 	-6.12612e-06 	-4.01365e-07 30.0003 	-6.12612e-06 	-4.01365e-07 30.0003 	-6.12611e-06 	-4.01365e-07 30.0003 	-6.12611e-06 	-4.01365e-07 30.0001 	-1.82947e-07 	-8.53082e-07 30.0003 	-6.14951e-06 	-4.40358e-07 30.0003 	-6.14951e-06 	-4.40358e-07 30.0003 	-6.14951e-06 	-4.40358e-07 30.0003 	-6.14951e-06 	-4.40358e-07 30.0001 	-1.83485e-07 	-9.00291e-07 30.0003 	-6.17217e-06 	-4.7798e-07 30.0003 	-6.17217e-06 	-4.7798e-07 30.0003 	-6.17217e-06 	-4.7798e-07 30.0003 	-6.17217e-06 	-4.7798e-07 30.0001 	-2.90974e-06 	-7.3144e-07 30.0003 	-6.19398e-06 	-5.14191e-07 30.0003 	-6.19398e-06 	-5.14191e-07 30.0003 	-6.19398e-06 	-5.1419e-07 30.0003 	-6.19397e-06 	-5.1419e-07 30.0001 	-2.94762e-06 	-7.75566e-07 30.0003 	-6.21489e-06 	-5.48814e-07 30.0003 	-6.21489e-06 	-5.48813e-07 30.0003 	-6.21489e-06 	-5.48813e-07 30.0003 	-6.21488e-06 	-5.48813e-07 30.0001 	-1.85014e-07 	-1.0295e-06 30.0003 	-6.23498e-06 	-5.82032e-07 30.0003 	-6.23498e-06 	-5.82032e-07 30.0003 	-6.23497e-06 	-5.82031e-07 30.0003 	-6.23497e-06 	-5.82031e-07 30.0001 	-3.02061e-06 	-8.57454e-07 30.0003 	-6.25426e-06 	-6.13873e-07 30.0003 	-6.25426e-06 	-6.13873e-07 30.0003 	-6.25426e-06 	-6.13873e-07 30.0003 	-6.25426e-06 	-6.13873e-07 30.0001 	-3.05571e-06 	-8.95459e-07 30.0003 	-6.27276e-06 	-6.44394e-07 30.0003 	-6.27276e-06 	-6.44394e-07 30.0003 	-6.27276e-06 	-6.44394e-07 30.0003 	-6.27276e-06 	-6.44393e-07 30.0001 	-1.86447e-07 	-1.14082e-06 30.0003 	-6.29047e-06 	-6.73594e-07 30.0003 	-6.29047e-06 	-6.73594e-07 30.0003 	-6.29047e-06 	-6.73594e-07 30.0003 	-6.29047e-06 	-6.73593e-07 30.0001 	-1.86899e-07 	-1.17457e-06 30.0003 	-6.30749e-06 	-7.01411e-07 30.0003 	-6.30749e-06 	-7.01411e-07 30.0003 	-6.30749e-06 	-7.01411e-07 30.0003 	-6.30749e-06 	-7.0141e-07 30.0001 	-1.87353e-07 	-1.20666e-06 30.0003 	-6.3236e-06 	-7.27844e-07 30.0003 	-6.3236e-06 	-7.27844e-07 30.0003 	-6.3236e-06 	-7.27844e-07 30.0003 	-6.32359e-06 	-7.27843e-07 30.0001 	-3.18716e-06 	-1.03098e-06 30.0003 	-6.33888e-06 	-7.52952e-07 30.0003 	-6.33888e-06 	-7.52952e-07 30.0003 	-6.33887e-06 	-7.52952e-07 30.0003 	-6.33887e-06 	-7.52952e-07 30.0001 	-1.88231e-07 	-1.26594e-06 30.0003 	-6.3534e-06 	-7.7692e-07 30.0003 	-6.3534e-06 	-7.76919e-07 30.0003 	-6.3534e-06 	-7.76919e-07 30.0003 	-6.3534e-06 	-7.76919e-07 30.0001 	-1.88644e-07 	-1.29329e-06 30.0003 	-6.36721e-06 	-7.9979e-07 30.0003 	-6.36721e-06 	-7.99789e-07 30.0003 	-6.36721e-06 	-7.99789e-07 30.0003 	-6.3672e-06 	-7.99789e-07 30.0001 	-3.27657e-06 	-1.11602e-06 30.0003 	-6.3803e-06 	-8.21518e-07 30.0003 	-6.3803e-06 	-8.21517e-07 30.0003 	-6.38029e-06 	-8.21517e-07 30.0003 	-6.38029e-06 	-8.21517e-07 30.0001 	-3.30468e-06 	-1.1415e-06 30.0003 	-6.39258e-06 	-8.41951e-07 30.0003 	-6.39258e-06 	-8.41951e-07 30.0003 	-6.39258e-06 	-8.4195e-07 30.0003 	-6.39257e-06 	-8.4195e-07 30.0001 	-1.89841e-07 	-1.36683e-06 30.0003 	-6.40421e-06 	-8.61341e-07 30.0003 	-6.40421e-06 	-8.61341e-07 30.0003 	-6.4042e-06 	-8.61341e-07 30.0003 	-6.4042e-06 	-8.6134e-07 30.0001 	-1.90225e-07 	-1.38871e-06 30.0003 	-6.41515e-06 	-8.79777e-07 30.0003 	-6.41515e-06 	-8.79777e-07 30.0003 	-6.41514e-06 	-8.79776e-07 30.0003 	-6.41514e-06 	-8.79776e-07 30.0001 	-1.90604e-07 	-1.40936e-06 30.0003 	-6.4254e-06 	-8.97262e-07 30.0003 	-6.4254e-06 	-8.97262e-07 30.0003 	-6.42539e-06 	-8.97261e-07 30.0003 	-6.42539e-06 	-8.97261e-07 30.0001 	-3.40899e-06 	-1.23049e-06 30.0003 	-6.43498e-06 	-9.13845e-07 30.0003 	-6.43498e-06 	-9.13844e-07 30.0003 	-6.43498e-06 	-9.13844e-07 30.0003 	-6.43498e-06 	-9.13844e-07 30.0001 	-3.43312e-06 	-1.24982e-06 30.0003 	-6.44386e-06 	-9.2953e-07 30.0003 	-6.44386e-06 	-9.2953e-07 30.0003 	-6.44386e-06 	-9.2953e-07 30.0003 	-6.44386e-06 	-9.29529e-07 30.0001 	-1.91688e-07 	-1.46452e-06 30.0003 	-6.45213e-06 	-9.44385e-07 30.0003 	-6.45212e-06 	-9.44385e-07 30.0003 	-6.45212e-06 	-9.44384e-07 30.0003 	-6.45212e-06 	-9.44384e-07 30.0001 	-3.47918e-06 	-1.28531e-06 30.0003 	-6.45981e-06 	-9.58391e-07 30.0003 	-6.4598e-06 	-9.5839e-07 30.0003 	-6.4598e-06 	-9.5839e-07 30.0003 	-6.4598e-06 	-9.58389e-07 30.0001 	-3.50123e-06 	-1.30158e-06 30.0003 	-6.46689e-06 	-9.71678e-07 30.0003 	-6.46689e-06 	-9.71678e-07 30.0003 	-6.46689e-06 	-9.71677e-07 30.0003 	-6.46689e-06 	-9.71677