# vtk DataFile Version 2.0
track0
ASCII
DATASET POLYDATA
POINTS 15780 float
-1.001 -0.05 0.0011
-1.0008 -0.05 0.0011
-1.0006 -0.05 0.0011
-1.0004 -0.05 0.0011
-1.0002 -0.05 0.0011
-1 -0.05 0.0011
-0.9875 -0.05 0.0011
-0.975 -0.05 0.0011
-0.9625 -0.05 0.0011
-0.95 -0.05 0.0011
-0.9375 -0.05 0.00109999
-0.925 -0.05 0.00109999
-0.9125 -0.05 0.00109999
-0.9 -0.05 0.00109999
-0.8875 -0.05 0.00109999
-0.875 -0.05 0.00109999
-0.8625 -0.05 0.00109999
-0.85 -0.05 0.00109999
-0.8375 -0.05 0.00109998
-0.825 -0.0500001 0.00109998
-0.8125 -0.0500001 0.00109998
-0.8 -0.0500001 0.00109998
-0.7875 -0.0500001 0.00109998
-0.775 -0.0500001 0.00109998
-0.7625 -0.0500001 0.00109998
-0.75 -0.0500001 0.00109998
-0.7375 -0.0500001 0.00109997
-0.725 -0.0500001 0.00109997
-0.7125 -0.0500001 0.00109997
-0.7 -0.0500001 0.00109997
-0.6875 -0.0500001 0.00109997
-0.675 -0.0500001 0.00109997
-0.6625 -0.0500001 0.00109997
-0.65 -0.0500001 0.00109996
-0.6375 -0.0500001 0.00109996
-0.625 -0.0500001 0.00109996
-0.6125 -0.0500001 0.00109996
-0.6 -0.0500001 0.00109996
-0.5875 -0.0500001 0.00109996
-0.575 -0.0500001 0.00109996
-0.5625 -0.0500001 0.00109996
-0.55 -0.0500001 0.00109995
-0.5375 -0.0500001 0.00109995
-0.525 -0.0500001 0.00109995
-0.5125 -0.0500001 0.00109995
-0.5 -0.0500001 0.00109995
-0.4875 -0.0500001 0.00109995
-0.475 -0.0500001 0.00109995
-0.4625 -0.0500001 0.00109994
-0.45 -0.0500002 0.00109994
-0.4375 -0.0500002 0.00109994
-0.425 -0.0500002 0.00109994
-0.4125 -0.0500002 0.00109994
-0.4 -0.0500002 0.00109994
-0.3875 -0.0500002 0.00109994
-0.375 -0.0500002 0.00109994
-0.3625 -0.0500002 0.00109993
-0.35 -0.0500002 0.00109993
-0.3375 -0.0500002 0.00109993
-0.325 -0.0500002 0.00109993
-0.3125 -0.0500002 0.00109993
-0.3 -0.0500002 0.00109993
-0.2875 -0.0500002 0.00109993
-0.275 -0.0500002 0.00109993
-0.2625 -0.0500002 0.00109992
-0.25 -0.0500002 0.00109992
-0.2375 -0.0500002 0.00109992
-0.225 -0.0500002 0.00109992
-0.2125 -0.0500002 0.00109992
-0.2 -0.0500002 0.00109992
-0.1875 -0.0500002 0.00109992
-0.175 -0.0500002 0.00109992
-0.1625 -0.0500002 0.00109991
-0.15 -0.0500002 0.00109991
-0.1375 -0.0500002 0.00109991
-0.125 -0.0500002 0.00109991
-0.1125 -0.0500002 0.00109991
-0.1 -0.0500002 0.00109991
-0.0875 -0.0500002 0.00109991
-0.075 -0.0500002 0.00109991
-0.0625 -0.0500002 0.00109991
-0.05 -0.0500003 0.00109991
-0.0375 -0.0500003 0.0010999
-0.025 -0.0500003 0.0010999
-0.0125 -0.0500003 0.0010999
2.10607e-13 -0.0500003 0.0010999
0.0125 -0.0500003 0.0010999
0.025 -0.0500003 0.0010999
0.0375 -0.0500003 0.0010999
0.05 -0.0500003 0.0010999
0.0625 -0.0500003 0.0010999
0.075 -0.0500003 0.0010999
0.0875 -0.0500003 0.0010999
0.1 -0.0500003 0.00109989
0.1125 -0.0500003 0.00109989
0.125 -0.0500003 0.00109989
0.1375 -0.0500003 0.00109989
0.15 -0.0500003 0.00109989
0.1625 -0.0500003 0.00109989
0.175 -0.0500003 0.00109989
0.1875 -0.0500003 0.00109989
0.2 -0.0500003 0.00109989
0.2125 -0.0500003 0.00109989
0.225 -0.0500003 0.00109989
0.2375 -0.0500003 0.00109989
0.25 -0.0500003 0.00109989
0.2625 -0.0500003 0.00109988
0.275 -0.0500003 0.00109988
0.2875 -0.0500003 0.00109988
0.3 -0.0500003 0.00109988
0.3125 -0.0500003 0.00109988
0.325 -0.0500003 0.00109988
0.3375 -0.0500003 0.00109988
0.35 -0.0500003 0.00109988
0.3625 -0.0500003 0.00109988
0.375 -0.0500003 0.00109988
0.3875 -0.0500003 0.00109988
0.4 -0.0500004 0.00109988
0.4125 -0.0500004 0.00109988
0.425 -0.0500004 0.00109988
0.4375 -0.0500004 0.00109988
0.45 -0.0500004 0.00109988
0.4625 -0.0500004 0.00109988
0.475 -0.0500004 0.00109988
0.4875 -0.0500004 0.00109988
0.5 -0.0500004 0.00109988
0.5125 -0.0500004 0.00109988
0.525 -0.0500004 0.00109988
0.5375 -0.0500004 0.00109988
0.55 -0.0500004 0.00109988
0.5625 -0.0500004 0.00109988
0.575 -0.0500004 0.00109987
0.5875 -0.0500004 0.00109987
0.6 -0.0500004 0.00109987
0.6125 -0.0500004 0.00109987
0.625 -0.0500004 0.00109987
0.6375 -0.0500004 0.00109987
0.65 -0.0500004 0.00109987
0.6625 -0.0500004 0.00109987
0.675 -0.0500004 0.00109987
0.6875 -0.0500004 0.00109987
0.7 -0.0500004 0.00109987
0.7125 -0.0500004 0.00109987
0.725 -0.0500004 0.00109987
0.7375 -0.0500004 0.00109987
0.75 -0.0500004 0.00109987
0.7625 -0.0500004 0.00109987
0.775 -0.0500004 0.00109987
0.7875 -0.0500004 0.00109987
0.8 -0.0500004 0.00109987
0.8125 -0.0500004 0.00109987
0.825 -0.0500004 0.00109987
0.8375 -0.0500004 0.00109987
0.85 -0.0500004 0.00109987
0.8625 -0.0500004 0.00109987
0.875 -0.0500004 0.00109987
0.8875 -0.0500004 0.00109987
0.9 -0.0500004 0.00109987
0.9125 -0.0500005 0.00109988
0.925 -0.0500005 0.00109988
0.9375 -0.0500005 0.00109988
0.95 -0.0500005 0.00109988
0.9625 -0.0500005 0.00109988
0.975 -0.0500005 0.00109988
0.9875 -0.0500005 0.00109988
1 -0.0500005 0.00109988
1.0125 -0.0500005 0.00109988
1.025 -0.0500005 0.00109988
1.0375 -0.0500005 0.00109988
1.05 -0.0500005 0.00109988
1.0625 -0.0500005 0.00109988
1.075 -0.0500005 0.00109988
1.0875 -0.0500005 0.00109988
1.1 -0.0500005 0.00109988
1.1125 -0.0500005 0.00109988
1.125 -0.0500005 0.00109988
1.1375 -0.0500005 0.00109988
1.15 -0.0500005 0.00109988
1.1625 -0.0500005 0.00109988
1.175 -0.0500005 0.00109988
1.1875 -0.0500005 0.00109988
1.2 -0.0500005 0.00109988
1.2125 -0.0500005 0.00109988
1.225 -0.0500005 0.00109988
1.2375 -0.0500005 0.00109989
1.25 -0.0500005 0.00109989
1.2625 -0.0500005 0.00109989
1.275 -0.0500005 0.00109989
1.2875 -0.0500005 0.00109989
1.3 -0.0500005 0.00109989
1.3125 -0.0500005 0.00109989
1.325 -0.0500005 0.00109989
1.3375 -0.0500005 0.00109989
1.35 -0.0500005 0.00109989
1.3625 -0.0500005 0.00109989
1.375 -0.0500005 0.00109989
1.3875 -0.0500005 0.00109989
1.4 -0.0500005 0.00109989
1.4125 -0.0500005 0.00109989
1.425 -0.0500005 0.00109989
1.4375 -0.0500005 0.0010999
1.45 -0.0500005 0.0010999
1.4625 -0.0500005 0.0010999
1.475 -0.0500005 0.0010999
1.4875 -0.0500005 0.0010999
1.5 -0.0500006 0.0010999
1.5125 -0.0500006 0.0010999
1.525 -0.0500006 0.0010999
1.5375 -0.0500006 0.0010999
1.55 -0.0500006 0.0010999
1.5625 -0.0500006 0.0010999
1.575 -0.0500006 0.0010999
1.5875 -0.0500006 0.0010999
1.6 -0.0500006 0.0010999
1.6125 -0.0500006 0.00109991
1.625 -0.0500006 0.00109991
1.6375 -0.0500006 0.00109991
1.65 -0.0500006 0.00109991
1.6625 -0.0500006 0.00109991
1.675 -0.0500006 0.00109991
1.6875 -0.0500006 0.00109991
1.7 -0.0500006 0.00109991
1.7125 -0.0500006 0.00109991
1.725 -0.0500006 0.00109991
1.7375 -0.0500006 0.00109991
1.75 -0.0500006 0.00109991
1.7625 -0.0500006 0.00109992
1.775 -0.0500006 0.00109992
1.7875 -0.0500006 0.00109992
1.8 -0.0500006 0.00109992
1.8125 -0.0500006 0.00109992
1.825 -0.0500006 0.00109992
1.8375 -0.0500006 0.00109992
1.85 -0.0500006 0.00109992
1.8625 -0.0500006 0.00109992
1.875 -0.0500006 0.00109992
1.8875 -0.0500006 0.00109992
1.9 -0.0500006 0.00109992
1.9125 -0.0500006 0.00109993
1.925 -0.0500006 0.00109993
1.9375 -0.0500006 0.00109993
1.95 -0.0500006 0.00109993
1.9625 -0.0500006 0.00109993
1.975 -0.0500006 0.00109993
1.9875 -0.0500006 0.00109993
2 -0.0500006 0.00109993
2.0125 -0.0500006 0.00109993
2.025 -0.0500006 0.00109993
2.0375 -0.0500006 0.00109993
2.05 -0.0500006 0.00109993
2.0625 -0.0500006 0.00109994
2.075 -0.0500006 0.00109994
2.0875 -0.0500006 0.00109994
2.1 -0.0500006 0.00109994
2.1125 -0.0500006 0.00109994
2.125 -0.0500006 0.00109994
2.1375 -0.0500006 0.00109994
2.15 -0.0500006 0.00109994
2.1625 -0.0500006 0.00109994
2.175 -0.0500007 0.00109994
2.1875 -0.0500007 0.00109994
2.2 -0.0500007 0.00109994
2.2125 -0.0500007 0.00109994
2.225 -0.0500007 0.00109995
2.2375 -0.0500007 0.00109995
2.25 -0.0500007 0.00109995
2.2625 -0.0500007 0.00109995
2.275 -0.0500007 0.00109995
2.2875 -0.0500007 0.00109995
2.3 -0.0500007 0.00109995
2.3125 -0.0500007 0.00109995
2.325 -0.0500007 0.00109995
2.3375 -0.0500007 0.00109995
2.35 -0.0500007 0.00109995
2.3625 -0.0500007 0.00109995
2.375 -0.0500007 0.00109995
2.3875 -0.0500007 0.00109996
2.4 -0.0500007 0.00109996
2.4125 -0.0500007 0.00109996
2.425 -0.0500007 0.00109996
2.4375 -0.0500007 0.00109996
2.45 -0.0500007 0.00109996
2.4625 -0.0500007 0.00109996
2.475 -0.0500007 0.00109996
2.4875 -0.0500007 0.00109996
2.5 -0.0500007 0.00109996
2.5125 -0.0500007 0.00109996
2.525 -0.0500007 0.00109996
2.5375 -0.0500007 0.00109996
2.55 -0.0500007 0.00109996
2.5625 -0.0500007 0.00109997
2.575 -0.0500007 0.00109997
2.5875 -0.0500007 0.00109997
2.6 -0.0500007 0.00109997
2.6125 -0.0500007 0.00109997
2.625 -0.0500007 0.00109997
2.6375 -0.0500007 0.00109997
2.65 -0.0500007 0.00109997
2.6625 -0.0500007 0.00109997
2.675 -0.0500007 0.00109997
2.6875 -0.0500007 0.00109997
2.7 -0.0500007 0.00109997
2.7125 -0.0500007 0.00109997
2.725 -0.0500007 0.00109997
2.7375 -0.0500007 0.00109997
2.75 -0.0500007 0.00109997
2.7625 -0.0500007 0.00109998
2.775 -0.0500007 0.00109998
2.7875 -0.0500007 0.00109998
2.8 -0.0500007 0.00109998
2.8125 -0.0500007 0.00109998
2.825 -0.0500007 0.00109998
2.8375 -0.0500007 0.00109998
2.85 -0.0500007 0.00109998
2.8625 -0.0500008 0.00109998
2.875 -0.0500008 0.00109998
2.8875 -0.0500008 0.00109998
2.9 -0.0500008 0.00109998
2.9125 -0.0500008 0.00109998
2.925 -0.0500008 0.00109998
2.9375 -0.0500008 0.00109998
2.95 -0.0500008 0.00109998
2.9625 -0.0500008 0.00109998
2.975 -0.0500008 0.00109998
2.9875 -0.0500008 0.00109998
3 -0.0500008 0.00109998
3.0125 -0.0500008 0.00109999
3.025 -0.0500008 0.00109999
3.0375 -0.0500008 0.00109999
3.05 -0.0500008 0.00109999
3.0625 -0.0500008 0.00109999
3.075 -0.0500008 0.00109999
3.0875 -0.0500008 0.00109999
3.1 -0.0500008 0.00109999
3.1125 -0.0500008 0.00109999
3.125 -0.0500008 0.00109999
3.1375 -0.0500008 0.00109999
3.15 -0.0500008 0.00109999
3.1625 -0.0500008 0.00109999
3.175 -0.0500008 0.00109999
3.1875 -0.0500008 0.00109999
3.2 -0.0500008 0.00109999
3.2125 -0.0500008 0.00109999
3.225 -0.0500008 0.00109999
3.2375 -0.0500008 0.00109999
3.25 -0.0500008 0.00109999
3.2625 -0.0500008 0.00109999
3.275 -0.0500008 0.00109999
3.2875 -0.0500008 0.00109999
3.3 -0.0500008 0.00109999
3.3125 -0.0500008 0.00109999
3.325 -0.0500008 0.00109999
3.3375 -0.0500008 0.00109999
3.35 -0.0500008 0.0011
3.3625 -0.0500008 0.0011
[...]
POINT_DATA 15780
 FIELD attributes 2
p 1 15780 float
-0.031098 -0.0311141 -0.0311301 -0.0311462 -0.0311622 -0.0311782 -0.0321097 -0.0330334 -0.0339572 -0.0348809 -0.0359013 -0.0369652 -0.0380316 -0.0390979 -0.0401643 -0.041184 -0.0421674 -0.0431322 -0.044097 -0.0450618 -0.045975 -0.0468728 -0.0477753 -0.0486779 -0.0495804 -0.0504772 -0.0513777 -0.0522793 -0.0531808 -0.0540823 -0.0549831 -0.0558906 -0.0567986 -0.0577065 -0.0586145 -0.0595219 -0.0604215 -0.061319 -0.0622165 -0.063114 -0.0640086 -0.0648877 -0.0657648 -0.066642 -0.0675191 -0.0683942 -0.0692516 -0.0701069 -0.0709622 -0.0718175 -0.0726708 -0.0735055 -0.0743375 -0.0751696 -0.0760016 -0.0768313 -0.0776396 -0.0784448 -0.0792499 -0.0800551 -0.0808574 -0.0816355 -0.0824098 -0.0831841 -0.0839583 -0.084729 -0.0854732 -0.0862131 -0.0869531 -0.087693 -0.0884291 -0.0891364 -0.089839 -0.0905415 -0.0912441 -0.091942 -0.0926093 -0.0932715 -0.0939337 -0.0945958 -0.095253 -0.0958775 -0.0964963 -0.0971151 -0.097734 -0.0983473 -0.0989263 -0.0994995 -0.100073 -0.100646 -0.101213 -0.101746 -0.102272 -0.102798 -0.103324 -0.103845 -0.104329 -0.104807 -0.105284 -0.105762 -0.106233 -0.106668 -0.107094 -0.107521 -0.107948 -0.108367 -0.108747 -0.10912 -0.109493 -0.109866 -0.110231 -0.110556 -0.110873 -0.11119 -0.111507 -0.111816 -0.112084 -0.112345 -0.112605 -0.112865 -0.113117 -0.113328 -0.11353 -0.113733 -0.113936 -0.11413 -0.114283 -0.114427 -0.114571 -0.114715 -0.114851 -0.114944 -0.115029 -0.115115 -0.1152 -0.115277 -0.115314 -0.115342 -0.115371 -0.1154 -0.115421 -0.115403 -0.115378 -0.115352 -0.115327 -0.115294 -0.115224 -0.115146 -0.115068 -0.11499 -0.114905 -0.114783 -0.114653 -0.114524 -0.114394 -0.114257 -0.114083 -0.113902 -0.113721 -0.11354 -0.113351 -0.113128 -0.112897 -0.112667 -0.112436 -0.112199 -0.111929 -0.111652 -0.111375 -0.111098 -0.110815 -0.1105 -0.11018 -0.109859 -0.109538 -0.109211 -0.108854 -0.108492 -0.108129 -0.107767 -0.107398 -0.107001 -0.106599 -0.106198 -0.105796 -0.105388 -0.104955 -0.104516 -0.104078 -0.10364 -0.103196 -0.10273 -0.102259 -0.101789 -0.101318 -0.100843 -0.100349 -0.0998511 -0.099353 -0.0988549 -0.0983527 -0.0978339 -0.0973115 -0.096789 -0.0962666 -0.0957403 -0.0951993 -0.094655 -0.0941106 -0.0935662 -0.0930182 -0.0924572 -0.0918934 -0.0913297 -0.0907659 -0.0901989 -0.0896213 -0.0890411 -0.0884609 -0.0878807 -0.0872976 -0.0867061 -0.0861128 -0.0855194 -0.084926 -0.0843303 -0.0837285 -0.0831249 -0.0825214 -0.0819179 -0.0813123 -0.0807026 -0.0800918 -0.079481 -0.0788702 -0.0782579 -0.0776435 -0.0770281 -0.0764127 -0.0757973 -0.0751806 -0.0745636 -0.0739462 -0.0733288 -0.0727114 -0.0720933 -0.0714765 -0.0708595 -0.0702425 -0.0696255 -0.069008 -0.0683934 -0.0677791 -0.0671648 -0.0665504 -0.065936 -0.065326 -0.0647163 -0.0641066 -0.0634969 -0.0628873 -0.0622833 -0.0616801 -0.0610769 -0.0604737 -0.059871 -0.0592751 -0.0586801 -0.0580851 -0.0574901 -0.0568957 -0.0563092 -0.0557239 -0.0551387 -0.0545534 -0.0539691 -0.0533937 -0.0528196 -0.0522455 -0.0516713 -0.0510983 -0.0505349 -0.0499732 -0.0494114 -0.0488496 -0.0482893 -0.0477393 -0.0471909 -0.0466426 -0.0460942 -0.0455473 -0.0450114 -0.0444773 -0.0439433 -0.0434093 -0.042877 -0.0423561 -0.0418372 -0.0413182 -0.0407993 -0.0402822 -0.0397768 -0.0392736 -0.0387704 -0.0382672 -0.037766 -0.0372769 -0.0367899 -0.036303 -0.035816 -0.0353311 -0.0348584 -0.0343881 -0.0339177 -0.0334474 -0.0329792 -0.0325235 -0.03207 -0.0316165 -0.0311631 -0.0307118 -0.030273 -0.0298366 -0.0294001 -0.0289637 -0.0285296 -0.0281079 -0.0276886 -0.0272693 -0.02685 -0.026433 -0.0260283 -0.0256261 -0.0252239 -0.0248216 -0.0244218 -0.0240343 -0.0236492 -0.023264 -0.0228789 -0.0224962 -0.0221258 -0.0217579 -0.0213901 -0.0210222 -0.0206567 -0.0203035 -0.0199528 -0.019602 -0.0192513 -0.0189029 -0.0185662 -0.0182322 -0.0178982 -0.0175642 -0.0172326 -0.0169123 -0.0165944 -0.0162765 -0.0159586 -0.0156432 -0.0153386 -0.0150363 -0.0147339 -0.0144316 -0.0141318 -0.0138425 -0.0135554 -0.0132684 -0.0129813 -0.0126968 -0.0124225 -0.0121504 -0.0118783 -0.0116062 -0.0113364 -0.0110767 -0.0108193 -0.0105618 -0.0103044 -0.0100492 -0.00980386 -0.00956071 -0.00931755 -0.0090744 -0.00883344 -0.00860197 -0.00837254 -0.0081431 -0.00791367 -0.00768632 -0.00746797 -0.00725172 -0.00703547 -0.00681923 -0.00660506 -0.00639953 -0.00619603 -0.00599253 -0.00578904 -0.00558754 -0.00539431 -0.0052032 -0.00501209 -0.00482097 -0.00463196 -0.00445092 -0.00427198 -0.00409305 -0.00391411 -0.00373723 -0.00356799 -0.00340081 -0.00323363 -0.00306645 -0.00290131 -0.00274326 -0.00258709 -0.00243091 -0.00227474 -0.00212059 -0.00197308 -0.0018271 -0.00168112 -0.00153514 -0.00139094 -0.00125298 -0.00111662 -0.000980259 -0.0008439 -0.000709315 -0.000580641 -0.000453575 -0.00032651 -0.000199444 -7.40236e-05 4.56448e-05 0.000163698 0.000281751 0.000399804 0.000516239 0.000627226 0.000736627 0.000846028 0.00095543 0.00106321 0.00116594 0.00126713 0.00136832 0.00146951 0.00156912 0.00166401 0.00175744 0.00185087 0.00194431 0.00203623 0.00212376 0.00220987 0.00229598 0.00238208 0.00246671 0.00254721 0.00262639 0.00270556 0.00278473 0.00286251 0.00293644 0.00300907 0.00308169 0.00315432 0.00322555 0.00329325 0.0033597 0.00342615 0.0034926 0.00355775 0.00361961 0.00368024 0.00374088 0.00380152 0.00386087 0.00391719 0.00397237 0.00402755 0.00408273 0.0041367 0.0041879 0.00423795 0.00428801 0.00433806 0.00438692 0.00443322 0.00447845 0.00452369 0.00456892 0.00461302 0.00465479 0.00469549 0.0047362 0.0047769 0.00481649 0.00485394 0.00489041 0.00492688 0.00496334 0.00499876 0.00503226 0.00506476 0.00509727 0.00512978 0.00516124 0.00519098 0.00521979 0.0052486 0.00527742 0.00530526 0.00533153 0.0053569 0.00538227 0.00540763 0.00543204 0.00545504 0.0054772 0.00549936 0.00552152 0.00554277 0.0055628 0.00558199 0.00560117 0.00562036 0.00563865 0.00565587 0.0056723 0.00568874 0.00570517 0.00572077 0.00573544 0.00574933 0.00576323 0.00577712 0.00579018 0.00580244 0.00581398 0.00582553 0.00583707 0.00584784 0.00585794 0.00586732 0.0058767 0.00588608 0.00589468 0.00590275 0.00591014 0.00591754 0.00592493 0.00593161 0.00593785 0.00594343 0.00594901 0.00595458 0.00595944 0.00596398 0.0059679 0.00597182 0.00597574 0.00597898 0.00598203 0.00598444 0.00598685 0.00598926 0.005991 0.00599263 0.00599367 0.00599472 0.00599576 0.00599617 0.00599657 0.00599637 0.00599618 0.00599598 0.00599515 0.00599439 0.00599309 0.00599178 0.00599047 0.00598858 0.00598685 0.00598456 0.00598227 0.00597998 0.0059771 0.00597445 0.00597128 0.00596811 0.00596494 0.00596123 0.0059578 0.00595386 0.00594991 0.00594597 0.00594148 0.00593736 0.00593275 0.00592814 0.00592353 0.0059184 0.00591372 0.00590854 0.00590337 0.00589819 0.0058925 0.00588732 0.00588167 0.00587603 0.00587038 0.00586425 0.00585868 0.00585265 0.00584662 0.00584059 0.00583408 0.00582819 0.00582186 0.00581553 0.0058092 0.00580241 0.0057963 0.00578976 0.00578321 0.00577666 0.00576966 0.00576339 0.0057567 0.00575001 0.00574332 0.0057362 0.00572986 0.00572311 0.00571635 0.0057096 0.00570241 0.00569606 0.00568931 0.00568256 0.00567581 0.00566864 0.00566236 0.00565568 0.005649 0.00564232 0.00563523 0.00562908 0.00562254 0.00561599 0.00560945 0.0056025 0.00559655 0.0055902 0.00558386 0.00557751 0.00557078 0.00556508 0.00555899 0.0055529 0.00554682 0.00554035 0.00553495 0.00552918 0.0055234 0.00551763 0.00551148 0.00550645 0.00550104 0.00549562 0.00549021 0.00548442 0.00547978 0.00547477 0.00546976 0.00546475 0.00545937 0.00545517 0.00545058 0.00544599 0.00544141 0.00543644 0.00543266 0.00542849 0.00542432 0.00542015 0.00541561 0.00541222 0.00540841 0.00540459 0.00540078 0.00539657 0.00539337 0.00538973 0.00538608 0.00538244 0.00537838 0.00537496 0.00537105 0.00536713 0.00536321 0.00535881 0.0053539 0.00534817 0.00534245 0.00533672 0.00533021 0.00532142 0.00531221 0.005303 0.00529379 0.00528409 0.00525797 0.00522631 0.00519466 0.005163 0.00512646 0.00511498 0.00511763 0.00512028 0.00512293 0.00514854 0.00523214 0.00530817 0.00538753 0.00545049 0.0054961 0.00548907 0.00548524 0.0054814 0.00547759 0.00547605 0.00550293 0.0055306 0.00555828 0.00557795 0.00559891 0.00561284 0.00563168 0.00565056 0.00566943 0.00568376 0.00574665 0.00581166 0.00587667 0.00594168 0.00599818 0.00608962 0.00616572 0.00624183 0.00631794 0.00632308 0.00630845 0.00628907 0.00626969 0.00625032 0.00624043 0.00603959 0.00581803 0.00559647 0.00537491 0.00504755 0.00456756 0.00407369 0.00357981 0.00308593 0.00262185 0.00235209 0.00207479 0.00179749 0.00152019 0.00127286 0.00117427 0.00106925 0.000964226 0.000859206 0.000773564 0.000667655 0.000556188 0.000444721 0.000333253 0.000255271
-0.0319474 -0.0319665 -0.0319856 -0.0320047 -0.0320238 -0.0320429 -0.0327438 -0.0336214 -0.0344041 -0.0351665 -0.0362248 -0.0372615 -0.0382519 -0.0392543 -0.0403137 -0.0412977 -0.0422589 -0.0432249 -0.0441655 -0.0451008 -0.0460067 -0.0469048 -0.0478108 -0.0487167 -0.0496219 -0.0505269 -0.0514186 -0.0523224 -0.0532311 -0.0541408 -0.0550612 -0.0559663 -0.0568785 -0.0577903 -0.0586998 -0.0596148 -0.0605162 -0.0614145 -0.0623141 -0.063214 -0.0641101 -0.0649912 -0.0658712 -0.0667508 -0.0676284 -0.0685043 -0.0693625 -0.0702181 -0.0710763 -0.0719351 -0.0727916 -0.0736256 -0.074461 -0.0752959 -0.0761282 -0.0769619 -0.0777692 -0.0785745 -0.0793823 -0.0801905 -0.0809973 -0.0817729 -0.0825501 -0.0833268 -0.0841012 -0.0848771 -0.0856179 -0.086358 -0.0871002 -0.087843 -0.0885853 -0.0892877 -0.0899929 -0.0906976 -0.0914002 -0.0921057 -0.092767 -0.0934291 -0.0940933 -0.0947579 -0.0954238 -0.0960407 -0.0966617 -0.0972824 -0.0979012 -0.0985239 -0.099093 -0.0996659 -0.100241 -0.100816 -0.101395 -0.101914 -0.102442 -0.102969 -0.103495 -0.10403 -0.104502 -0.10498 -0.105458 -0.105936 -0.106421 -0.106844 -0.107271 -0.107697 -0.108124 -0.108555 -0.108925 -0.109298 -0.109671 -0.110043 -0.110418 -0.110733 -0.11105 -0.111366 -0.111683 -0.112001 -0.112261 -0.112521 -0.11278 -0.11304 -0.1133 -0.113502 -0.113704 -0.113906 -0.114109 -0.114311 -0.114455 -0.114599 -0.114743 -0.114886 -0.115029 -0.115112 -0.115197 -0.115283 -0.115368 -0.115455 -0.11548 -0.115508 -0.115537 -0.115566 -0.115599 -0.115567 -0.115541 -0.115515 -0.115489 -0.11547 -0.115385 -0.115307 -0.115228 -0.115148 -0.115075 -0.114939 -0.114806 -0.114673 -0.114543 -0.114416 -0.114229 -0.114048 -0.113864 -0.113679 -0.113499 -0.113263 -0.113029 -0.112796 -0.112565 -0.112335 -0.112054 -0.111776 -0.111496 -0.111216 -0.110939 -0.110615 -0.11029 -0.109966 -0.109645 -0.109324 -0.108959 -0.108597 -0.108232 -0.107866 -0.107503 -0.107099 -0.106695 -0.106292 -0.10589 -0.105486 -0.105046 -0.104607 -0.104167 -0.103727 -0.103289 -0.102812 -0.102339 -0.101867 -0.101396 -0.100927 -0.100422 -0.0999233 -0.0994222 -0.0989205 -0.0984255 -0.0978964 -0.0973701 -0.0968445 -0.0963215 -0.0958013 -0.0952517 -0.0947069 -0.0941596 -0.0936116 -0.0930686 -0.0925001 -0.091933 -0.0913664 -0.0908023 -0.0902392 -0.0896546 -0.0890741 -0.0884912 -0.0879079 -0.0873285 -0.0867307 -0.0861343 -0.0855383 -0.0849446 -0.0843519 -0.0837442 -0.0831404 -0.0825344 -0.081928 -0.0813252 -0.0807104 -0.0800969 -0.0794837 -0.0788726 -0.0782625 -0.0776433 -0.0770277 -0.0764101 -0.0757921 -0.0751774 -0.0745564 -0.0739366 -0.0733171 -0.0726995 -0.0720827 -0.0714624 -0.0708451 -0.0702263 -0.0696071 -0.0689909 -0.0683734 -0.0677571 -0.0671411 -0.0665266 -0.065913 -0.0653004 -0.0646905 -0.0640793 -0.0634678 -0.0628589 -0.0622529 -0.061648 -0.0610434 -0.06044 -0.0598376 -0.05924 -0.0586448 -0.0580485 -0.057452 -0.0568579 -0.0562701 -0.0556835 -0.0550972 -0.0545118 -0.0539274 -0.053351 -0.0527768 -0.0522017 -0.0516264 -0.0510531 -0.0504892 -0.0499264 -0.0493638 -0.048802 -0.0482411 -0.0476908 -0.0471424 -0.0465933 -0.0460441 -0.0454966 -0.0449608 -0.044426 -0.0438914 -0.0433573 -0.0428241 -0.0423036 -0.0417846 -0.0412652 -0.0407457 -0.0402277 -0.039723 -0.0392193 -0.0387157 -0.0382125 -0.0377102 -0.0372219 -0.0367349 -0.0362477 -0.0357604 -0.0352743 -0.0348028 -0.0343322 -0.0338616 -0.0333913 -0.0329218 -0.0324673 -0.0320139 -0.0315603 -0.0311067 -0.0306542 -0.0302168 -0.0297803 -0.0293439 -0.0289075 -0.028472 -0.0280519 -0.0276326 -0.0272134 -0.0267941 -0.0263758 -0.0259728 -0.0255707 -0.0251686 -0.0247664 -0.0243652 -0.0239792 -0.0235941 -0.0232091 -0.0228242 -0.0224402 -0.0220712 -0.0217036 -0.0213359 -0.0209681 -0.0206014 -0.0202495 -0.0198988 -0.0195483 -0.0191978 -0.0188485 -0.0185131 -0.0181791 -0.0178452 -0.0175113 -0.0171786 -0.01686 -0.0165422 -0.0162245 -0.0159068 -0.0155901 -0.0152876 -0.0149856 -0.0146836 -0.0143814 -0.0140797 -0.0137932 -0.0135062 -0.0132195 -0.0129329 -0.012646 -0.0123746 -0.012103 -0.0118313 -0.0115592 -0.011287 -0.01103 -0.0107726 -0.0105155 -0.0102585 -0.010001 -0.00975826 -0.00951556 -0.00927279 -0.00902968 -0.00878677 -0.00855778 -0.00832844 -0.00809949 -0.00787063 -0.00764129 -0.00742561 -0.00721009 -0.00699446 -0.00677833 -0.00656246 -0.00635937 -0.00615598 -0.00595312 -0.00575037 -0.00554733 -0.00535635 -0.00516598 -0.00497549 -0.00478446 -0.00459398 -0.00441483 -0.00423595 -0.00405747 -0.00387909 -0.00370106 -0.00353306 -0.00336611 -0.00319913 -0.00303198 -0.00286565 -0.00270903 -0.00255292 -0.00239692 -0.00224094 -0.00208561 -0.00193991 -0.00179433 -0.0016487 -0.00150283 -0.00135726 -0.00122185 -0.00108562 -0.000949775 -0.000814016 -0.000677495 -0.000551529 -0.000425128 -0.000298626 -0.000171672 -4.44312e-05 7.2841e-05 0.000190809 0.000308337 0.000425767 0.000543934 0.000652752 0.000761606 0.000870547 0.000979879 0.00108923 0.00118994 0.00129107 0.00139184 0.00149254 0.0015936 0.00168661 0.00177957 0.00187261 0.00196597 0.00205928 0.00214493 0.00223097 0.00231669 0.00240234 0.0024883 0.00256705 0.00264576 0.00272454 0.00280365 0.00288269 0.00295485 0.00302741 0.00309965 0.0031718 0.00324429 0.00331035 0.00337636 0.00344244 0.00350883 0.00357515 0.00363539 0.00369597 0.00375627 0.00381651 0.00387702 0.00393182 0.00398665 0.00404153 0.00409666 0.00415179 0.00420141 0.00425141 0.00430117 0.00435087 0.0044009 0.00444568 0.00449056 0.00453549 0.00458067 0.00462591 0.00466613 0.00470678 0.00474719 0.00478754 0.00482826 0.00486426 0.00490039 0.00493658 0.00497299 0.00500953 0.00504153 0.00507399 0.00510623 0.00513841 0.00517099 0.00519932 0.00522782 0.00525638 0.00528514 0.00531407 0.00533892 0.00536424 0.00538936 0.00541444 0.00543992 0.00546159 0.00548347 0.00550539 0.00552751 0.00554983 0.00556849 0.00558764 0.0056066 0.00562552 0.00564486 0.00566079 0.00567697 0.00569319 0.00570958 0.00572621 0.00573957 0.00575342 0.0057671 0.00578075 0.00579483 0.00580586 0.00581716 0.00582851 0.00584001 0.00585179 0.00586062 0.00586996 0.00587915 0.00588831 0.00589792 0.00590479 0.00591197 0.00591918 0.00592654 0.0059342 0.00593922 0.00594476 0.00595017 0.00595555 0.00596139 0.00596477 0.0059685 0.00597226 0.00597615 0.00598037 0.00598221 0.0059846 0.00598686 0.00598909 0.00599182 0.00599231 0.00599318 0.00599408 0.00599509 0.00599648 0.0059957 0.00599547 0.00599514 0.00599478 0.00599493 0.00599304 0.00599158 0.00599015 0.00598882 0.00598791 0.00598504 0.00598273 0.00598031 0.00597787 0.00597595 0.00597222 0.00596891 0.00596562 0.00596243 0.00595964 0.00595513 0.00595116 0.00594711 0.00594303 0.00593947 0.0059343 0.00592957 0.00592486 0.00592023 0.00591603 0.00591028 0.00590509 0.00589982 0.00589453 0.00588976 0.00588356 0.0058778 0.00587207 0.0058664 0.0058612 0.00585458 0.00584854 0.00584242 0.00583629 0.0058307 0.0058238 0.00581738 0.00581097 0.00580462 0.00579876 0.00579162 0.00578506 0.00577844 0.00577181 0.00576572 0.00575846 0.00575169 0.00574493 0.00573823 0.00573202 0.00572468 0.00571791 0.00571109 0.00570426 0.00569799 0.00569066 0.00568384 0.00567704 0.00567027 0.00566403 0.00565675 0.00565006 0.00564333 0.00563659 0.00563041 0.00562329 0.00561669 0.0056101 0.00560355 0.00559754 0.00559059 0.00558424 0.00557785 0.00557146 0.00556565 0.00555898 0.00555286 0.00554674 0.00554064 0.00553512 0.00552874 0.00552296 0.00551716 0.00551136 0.00550615 0.00550015 0.00549472 0.0054893 0.00548388 0.00547906 0.00547344 0.00546843 0.00546342 0.00545842 0.00545401 0.00544884 0.00544429 0.00543974 0.00543515 0.00543122 0.00542645 0.00542229 0.00541821 0.00541414 0.00541068 0.00540631 0.00540271 0.00539908 0.00539529 0.00539231 0.00538814 0.00538455 0.00538131 0.00537816 0.0053756 0.00537127 0.00536845 0.00536545 0.00536167 0.00535939 0.00535406 0.00534881 0.00534581 0.00534335 0.00534091 0.00533186 0.00533013 0.0053272 0.00531926 0.00531822 0.00530389 0.00527932 0.00527481 0.00527502 0.00526428 0.00522138 0.00523295 0.00524331 0.00524858 0.00531669 0.00541014 0.00547369 0.00553726 0.00557523 0.00552892 0.00550969 0.00550265 0.0054956 0.0054881 0.0054921 0.00550963 0.00552779 0.00554595 0.00555765 0.00556891 0.00556996 0.00557101 0.00557207 0.00557299 0.00557369 0.00559852 0.00562746 0.0056565 0.00568553 0.00565891 0.00569706 0.0057597 0.00582271 0.00588573 0.00596572 0.00617999 0.00626901 0.00635147 0.00642758 0.00632065 0.00635651 0.00633714 0.00632069 0.00631123 0.00625586 0.00620931 0.00598776 0.0057662 0.00553207 0.00503848 0.00469886 0.00420498 0.00371111 0.00321455 0.00259576 0.00241414 0.00213684 0.00185954 0.00158224 0.00124245 0.00122335 0.00111833 0.00101331 0.000908295 0.000751132 0.000715139 0.000603674 0.000492209 0.000380744 0.000206751