# vtk DataFile Version 2.0
track0
ASCII
DATASET POLYDATA
POINTS 15780 float
-1.001 -0.05 0.0011
-1.0008 -0.05 0.0011
-1.0006 -0.05 0.0011
-1.0004 -0.05 0.0011
-1.0002 -0.05 0.0011
-1 -0.05 0.0011
-0.9875 -0.05 0.0011
-0.975 -0.05 0.0011
-0.9625 -0.05 0.0011
-0.95 -0.05 0.0011
-0.9375 -0.05 0.00109999
-0.925 -0.05 0.00109999
-0.9125 -0.05 0.00109999
-0.9 -0.05 0.00109999
-0.8875 -0.05 0.00109999
-0.875 -0.05 0.00109999
-0.8625 -0.05 0.00109999
-0.85 -0.05 0.00109999
-0.8375 -0.05 0.00109998
-0.825 -0.0500001 0.00109998
-0.8125 -0.0500001 0.00109998
-0.8 -0.0500001 0.00109998
-0.7875 -0.0500001 0.00109998
-0.775 -0.0500001 0.00109998
-0.7625 -0.0500001 0.00109998
-0.75 -0.0500001 0.00109998
-0.7375 -0.0500001 0.00109997
-0.725 -0.0500001 0.00109997
-0.7125 -0.0500001 0.00109997
-0.7 -0.0500001 0.00109997
-0.6875 -0.0500001 0.00109997
-0.675 -0.0500001 0.00109997
-0.6625 -0.0500001 0.00109997
-0.65 -0.0500001 0.00109996
-0.6375 -0.0500001 0.00109996
-0.625 -0.0500001 0.00109996
-0.6125 -0.0500001 0.00109996
-0.6 -0.0500001 0.00109996
-0.5875 -0.0500001 0.00109996
-0.575 -0.0500001 0.00109996
-0.5625 -0.0500001 0.00109996
-0.55 -0.0500001 0.00109995
-0.5375 -0.0500001 0.00109995
-0.525 -0.0500001 0.00109995
-0.5125 -0.0500001 0.00109995
-0.5 -0.0500001 0.00109995
-0.4875 -0.0500001 0.00109995
-0.475 -0.0500001 0.00109995
-0.4625 -0.0500001 0.00109994
-0.45 -0.0500002 0.00109994
-0.4375 -0.0500002 0.00109994
-0.425 -0.0500002 0.00109994
-0.4125 -0.0500002 0.00109994
-0.4 -0.0500002 0.00109994
-0.3875 -0.0500002 0.00109994
-0.375 -0.0500002 0.00109994
-0.3625 -0.0500002 0.00109993
-0.35 -0.0500002 0.00109993
-0.3375 -0.0500002 0.00109993
-0.325 -0.0500002 0.00109993
-0.3125 -0.0500002 0.00109993
-0.3 -0.0500002 0.00109993
-0.2875 -0.0500002 0.00109993
-0.275 -0.0500002 0.00109993
-0.2625 -0.0500002 0.00109992
-0.25 -0.0500002 0.00109992
-0.2375 -0.0500002 0.00109992
-0.225 -0.0500002 0.00109992
-0.2125 -0.0500002 0.00109992
-0.2 -0.0500002 0.00109992
-0.1875 -0.0500002 0.00109992
-0.175 -0.0500002 0.00109992
-0.1625 -0.0500002 0.00109991
-0.15 -0.0500002 0.00109991
-0.1375 -0.0500002 0.00109991
-0.125 -0.0500002 0.00109991
-0.1125 -0.0500002 0.00109991
-0.1 -0.0500002 0.00109991
-0.0875 -0.0500002 0.00109991
-0.075 -0.0500002 0.00109991
-0.0625 -0.0500002 0.00109991
-0.05 -0.0500003 0.00109991
-0.0375 -0.0500003 0.0010999
-0.025 -0.0500003 0.0010999
-0.0125 -0.0500003 0.0010999
2.10607e-13 -0.0500003 0.0010999
0.0125 -0.0500003 0.0010999
0.025 -0.0500003 0.0010999
0.0375 -0.0500003 0.0010999
0.05 -0.0500003 0.0010999
0.0625 -0.0500003 0.0010999
0.075 -0.0500003 0.0010999
0.0875 -0.0500003 0.0010999
0.1 -0.0500003 0.00109989
0.1125 -0.0500003 0.00109989
0.125 -0.0500003 0.00109989
0.1375 -0.0500003 0.00109989
0.15 -0.0500003 0.00109989
0.1625 -0.0500003 0.00109989
0.175 -0.0500003 0.00109989
0.1875 -0.0500003 0.00109989
0.2 -0.0500003 0.00109989
0.2125 -0.0500003 0.00109989
0.225 -0.0500003 0.00109989
0.2375 -0.0500003 0.00109989
0.25 -0.0500003 0.00109989
0.2625 -0.0500003 0.00109988
0.275 -0.0500003 0.00109988
0.2875 -0.0500003 0.00109988
0.3 -0.0500003 0.00109988
0.3125 -0.0500003 0.00109988
0.325 -0.0500003 0.00109988
0.3375 -0.0500003 0.00109988
0.35 -0.0500003 0.00109988
0.3625 -0.0500003 0.00109988
0.375 -0.0500003 0.00109988
0.3875 -0.0500003 0.00109988
0.4 -0.0500004 0.00109988
0.4125 -0.0500004 0.00109988
0.425 -0.0500004 0.00109988
0.4375 -0.0500004 0.00109988
0.45 -0.0500004 0.00109988
0.4625 -0.0500004 0.00109988
0.475 -0.0500004 0.00109988
0.4875 -0.0500004 0.00109988
0.5 -0.0500004 0.00109988
0.5125 -0.0500004 0.00109988
0.525 -0.0500004 0.00109988
0.5375 -0.0500004 0.00109988
0.55 -0.0500004 0.00109988
0.5625 -0.0500004 0.00109988
0.575 -0.0500004 0.00109987
0.5875 -0.0500004 0.00109987
0.6 -0.0500004 0.00109987
0.6125 -0.0500004 0.00109987
0.625 -0.0500004 0.00109987
0.6375 -0.0500004 0.00109987
0.65 -0.0500004 0.00109987
0.6625 -0.0500004 0.00109987
0.675 -0.0500004 0.00109987
0.6875 -0.0500004 0.00109987
0.7 -0.0500004 0.00109987
0.7125 -0.0500004 0.00109987
0.725 -0.0500004 0.00109987
0.7375 -0.0500004 0.00109987
0.75 -0.0500004 0.00109987
0.7625 -0.0500004 0.00109987
0.775 -0.0500004 0.00109987
0.7875 -0.0500004 0.00109987
0.8 -0.0500004 0.00109987
0.8125 -0.0500004 0.00109987
0.825 -0.0500004 0.00109987
0.8375 -0.0500004 0.00109987
0.85 -0.0500004 0.00109987
0.8625 -0.0500004 0.00109987
0.875 -0.0500004 0.00109987
0.8875 -0.0500004 0.00109987
0.9 -0.0500004 0.00109987
0.9125 -0.0500005 0.00109988
0.925 -0.0500005 0.00109988
0.9375 -0.0500005 0.00109988
0.95 -0.0500005 0.00109988
0.9625 -0.0500005 0.00109988
0.975 -0.0500005 0.00109988
0.9875 -0.0500005 0.00109988
1 -0.0500005 0.00109988
1.0125 -0.0500005 0.00109988
1.025 -0.0500005 0.00109988
1.0375 -0.0500005 0.00109988
1.05 -0.0500005 0.00109988
1.0625 -0.0500005 0.00109988
1.075 -0.0500005 0.00109988
1.0875 -0.0500005 0.00109988
1.1 -0.0500005 0.00109988
1.1125 -0.0500005 0.00109988
1.125 -0.0500005 0.00109988
1.1375 -0.0500005 0.00109988
1.15 -0.0500005 0.00109988
1.1625 -0.0500005 0.00109988
1.175 -0.0500005 0.00109988
1.1875 -0.0500005 0.00109988
1.2 -0.0500005 0.00109988
1.2125 -0.0500005 0.00109988
1.225 -0.0500005 0.00109988
1.2375 -0.0500005 0.00109989
1.25 -0.0500005 0.00109989
1.2625 -0.0500005 0.00109989
1.275 -0.0500005 0.00109989
1.2875 -0.0500005 0.00109989
1.3 -0.0500005 0.00109989
1.3125 -0.0500005 0.00109989
1.325 -0.0500005 0.00109989
1.3375 -0.0500005 0.00109989
1.35 -0.0500005 0.00109989
1.3625 -0.0500005 0.00109989
1.375 -0.0500005 0.00109989
1.3875 -0.0500005 0.00109989
1.4 -0.0500005 0.00109989
1.4125 -0.0500005 0.00109989
1.425 -0.0500005 0.00109989
1.4375 -0.0500005 0.0010999
1.45 -0.0500005 0.0010999
1.4625 -0.0500005 0.0010999
1.475 -0.0500005 0.0010999
1.4875 -0.0500005 0.0010999
1.5 -0.0500006 0.0010999
1.5125 -0.0500006 0.0010999
1.525 -0.0500006 0.0010999
1.5375 -0.0500006 0.0010999
1.55 -0.0500006 0.0010999
1.5625 -0.0500006 0.0010999
1.575 -0.0500006 0.0010999
1.5875 -0.0500006 0.0010999
1.6 -0.0500006 0.0010999
1.6125 -0.0500006 0.00109991
1.625 -0.0500006 0.00109991
1.6375 -0.0500006 0.00109991
1.65 -0.0500006 0.00109991
1.6625 -0.0500006 0.00109991
1.675 -0.0500006 0.00109991
1.6875 -0.0500006 0.00109991
1.7 -0.0500006 0.00109991
1.7125 -0.0500006 0.00109991
1.725 -0.0500006 0.00109991
1.7375 -0.0500006 0.00109991
1.75 -0.0500006 0.00109991
1.7625 -0.0500006 0.00109992
1.775 -0.0500006 0.00109992
1.7875 -0.0500006 0.00109992
1.8 -0.0500006 0.00109992
1.8125 -0.0500006 0.00109992
1.825 -0.0500006 0.00109992
1.8375 -0.0500006 0.00109992
1.85 -0.0500006 0.00109992
1.8625 -0.0500006 0.00109992
1.875 -0.0500006 0.00109992
1.8875 -0.0500006 0.00109992
1.9 -0.0500006 0.00109992
1.9125 -0.0500006 0.00109993
1.925 -0.0500006 0.00109993
1.9375 -0.0500006 0.00109993
1.95 -0.0500006 0.00109993
1.9625 -0.0500006 0.00109993
1.975 -0.0500006 0.00109993
1.9875 -0.0500006 0.00109993
2 -0.0500006 0.00109993
2.0125 -0.0500006 0.00109993
2.025 -0.0500006 0.00109993
2.0375 -0.0500006 0.00109993
2.05 -0.0500006 0.00109993
2.0625 -0.0500006 0.00109994
2.075 -0.0500006 0.00109994
2.0875 -0.0500006 0.00109994
2.1 -0.0500006 0.00109994
2.1125 -0.0500006 0.00109994
2.125 -0.0500006 0.00109994
2.1375 -0.0500006 0.00109994
2.15 -0.0500006 0.00109994
2.1625 -0.0500006 0.00109994
2.175 -0.0500007 0.00109994
2.1875 -0.0500007 0.00109994
2.2 -0.0500007 0.00109994
2.2125 -0.0500007 0.00109994
2.225 -0.0500007 0.00109995
2.2375 -0.0500007 0.00109995
2.25 -0.0500007 0.00109995
2.2625 -0.0500007 0.00109995
2.275 -0.0500007 0.00109995
2.2875 -0.0500007 0.00109995
2.3 -0.0500007 0.00109995
2.3125 -0.0500007 0.00109995
2.325 -0.0500007 0.00109995
2.3375 -0.0500007 0.00109995
2.35 -0.0500007 0.00109995
2.3625 -0.0500007 0.00109995
2.375 -0.0500007 0.00109995
2.3875 -0.0500007 0.00109996
2.4 -0.0500007 0.00109996
2.4125 -0.0500007 0.00109996
2.425 -0.0500007 0.00109996
2.4375 -0.0500007 0.00109996
2.45 -0.0500007 0.00109996
2.4625 -0.0500007 0.00109996
2.475 -0.0500007 0.00109996
2.4875 -0.0500007 0.00109996
2.5 -0.0500007 0.00109996
2.5125 -0.0500007 0.00109996
2.525 -0.0500007 0.00109996
2.5375 -0.0500007 0.00109996
2.55 -0.0500007 0.00109996
2.5625 -0.0500007 0.00109997
2.575 -0.0500007 0.00109997
2.5875 -0.0500007 0.00109997
2.6 -0.0500007 0.00109997
2.6125 -0.0500007 0.00109997
2.625 -0.0500007 0.00109997
2.6375 -0.0500007 0.00109997
2.65 -0.0500007 0.00109997
2.6625 -0.0500007 0.00109997
2.675 -0.0500007 0.00109997
2.6875 -0.0500007 0.00109997
2.7 -0.0500007 0.00109997
2.7125 -0.0500007 0.00109997
2.725 -0.0500007 0.00109997
2.7375 -0.0500007 0.00109997
2.75 -0.0500007 0.00109997
2.7625 -0.0500007 0.00109998
2.775 -0.0500007 0.00109998
2.7875 -0.0500007 0.00109998
2.8 -0.0500007 0.00109998
2.8125 -0.0500007 0.00109998
2.825 -0.0500007 0.00109998
2.8375 -0.0500007 0.00109998
2.85 -0.0500007 0.00109998
2.8625 -0.0500008 0.00109998
2.875 -0.0500008 0.00109998
2.8875 -0.0500008 0.00109998
2.9 -0.0500008 0.00109998
2.9125 -0.0500008 0.00109998
2.925 -0.0500008 0.00109998
2.9375 -0.0500008 0.00109998
2.95 -0.0500008 0.00109998
2.9625 -0.0500008 0.00109998
2.975 -0.0500008 0.00109998
2.9875 -0.0500008 0.00109998
3 -0.0500008 0.00109998
3.0125 -0.0500008 0.00109999
3.025 -0.0500008 0.00109999
3.0375 -0.0500008 0.00109999
3.05 -0.0500008 0.00109999
3.0625 -0.0500008 0.00109999
3.075 -0.0500008 0.00109999
3.0875 -0.0500008 0.00109999
3.1 -0.0500008 0.00109999
3.1125 -0.0500008 0.00109999
3.125 -0.0500008 0.00109999
3.1375 -0.0500008 0.00109999
3.15 -0.0500008 0.00109999
3.1625 -0.0500008 0.00109999
3.175 -0.0500008 0.00109999
3.1875 -0.0500008 0.00109999
3.2 -0.0500008 0.00109999
3.2125 -0.0500008 0.00109999
3.225 -0.0500008 0.00109999
3.2375 -0.0500008 0.00109999
3.25 -0.0500008 0.00109999
3.2625 -0.0500008 0.00109999
3.275 -0.0500008 0.00109999
3.2875 -0.0500008 0.00109999
3.3 -0.0500008 0.00109999
3.3125 -0.0500008 0.00109999
3.325 -0.0500008 0.00109999
3.3375 -0.0500008 0.00109999
3.35 -0.0500008 0.0011
3.3625 -0.0500008 0.0011
[...]
POINT_DATA 15780
 FIELD attributes 1
U 3 15780 float
30.0002 	-7.01783e-06 	-6.30587e-06 30.0002 	-6.84334e-06 	-6.51454e-06 30.0002 	-6.66886e-06 	-6.7232e-06 30.0002 	-6.49437e-06 	-6.93187e-06 30.0002 	-6.31988e-06 	-7.14054e-06 30.0002 	-6.1454e-06 	-7.3492e-06 30.0004 	-1.2385e-05 	-1.261e-06 30.0004 	-1.2385e-05 	-1.261e-06 30.0004 	-1.2385e-05 	-1.261e-06 30.0004 	-1.2385e-05 	-1.261e-06 30.0002 	-7.04485e-08 	-6.84366e-06 30.0005 	-1.07089e-05 	-1.68705e-06 30.0005 	-1.07089e-05 	-1.68705e-06 30.0005 	-1.07089e-05 	-1.68705e-06 30.0005 	-1.07089e-05 	-1.68705e-06 30.0002 	-7.21226e-08 	-6.59607e-06 30.0005 	-9.95834e-06 	-2.08023e-06 30.0005 	-9.95834e-06 	-2.08023e-06 30.0005 	-9.95833e-06 	-2.08022e-06 30.0005 	-9.95832e-06 	-2.08022e-06 30.0003 	-4.59301e-06 	-6.24725e-06 30.0005 	-9.69158e-06 	-2.34895e-06 30.0005 	-9.69157e-06 	-2.34895e-06 30.0005 	-9.69156e-06 	-2.34895e-06 30.0005 	-9.69155e-06 	-2.34895e-06 30.0003 	-7.5711e-08 	-6.57615e-06 30.0005 	-9.52339e-06 	-2.49782e-06 30.0005 	-9.52338e-06 	-2.49782e-06 30.0005 	-9.52337e-06 	-2.49782e-06 30.0005 	-9.52336e-06 	-2.49781e-06 30.0003 	-7.74666e-08 	-6.52626e-06 30.0005 	-9.38702e-06 	-2.55606e-06 30.0005 	-9.38701e-06 	-2.55606e-06 30.0005 	-9.387e-06 	-2.55606e-06 30.0005 	-9.38699e-06 	-2.55605e-06 30.0003 	-4.26681e-06 	-6.08528e-06 30.0005 	-9.2796e-06 	-2.55829e-06 30.0005 	-9.27959e-06 	-2.55829e-06 30.0005 	-9.27958e-06 	-2.55829e-06 30.0005 	-9.27957e-06 	-2.55828e-06 30.0003 	-4.1992e-06 	-5.97789e-06 30.0006 	-9.18739e-06 	-2.53042e-06 30.0006 	-9.18738e-06 	-2.53042e-06 30.0006 	-9.18737e-06 	-2.53042e-06 30.0006 	-9.18736e-06 	-2.53042e-06 30.0003 	-8.27618e-08 	-6.20126e-06 30.0006 	-9.09732e-06 	-2.48118e-06 30.0006 	-9.09731e-06 	-2.48117e-06 30.0006 	-9.0973e-06 	-2.48117e-06 30.0006 	-9.09729e-06 	-2.48117e-06 30.0003 	-8.4515e-08 	-6.05423e-06 30.0006 	-9.00486e-06 	-2.4136e-06 30.0006 	-9.00485e-06 	-2.4136e-06 30.0006 	-9.00485e-06 	-2.4136e-06 30.0006 	-9.00484e-06 	-2.4136e-06 30.0003 	-8.6272e-08 	-5.88782e-06 30.0006 	-8.90872e-06 	-2.32972e-06 30.0006 	-8.90871e-06 	-2.32972e-06 30.0006 	-8.90871e-06 	-2.32972e-06 30.0006 	-8.9087e-06 	-2.32971e-06 30.0003 	-3.9378e-06 	-5.36346e-06 30.0006 	-8.80868e-06 	-2.23274e-06 30.0006 	-8.80868e-06 	-2.23274e-06 30.0006 	-8.80867e-06 	-2.23274e-06 30.0006 	-8.80866e-06 	-2.23274e-06 30.0003 	-3.86401e-06 	-5.16475e-06 30.0006 	-8.7044e-06 	-2.12414e-06 30.0006 	-8.70439e-06 	-2.12414e-06 30.0006 	-8.70438e-06 	-2.12414e-06 30.0006 	-8.70438e-06 	-2.12413e-06 30.0003 	-9.15431e-08 	-5.28457e-06 30.0006 	-8.59622e-06 	-2.00508e-06 30.0006 	-8.59622e-06 	-2.00508e-06 30.0006 	-8.59621e-06 	-2.00507e-06 30.0006 	-8.5962e-06 	-2.00507e-06 30.0003 	-3.70441e-06 	-4.7194e-06 30.0007 	-8.48486e-06 	-1.87668e-06 30.0007 	-8.48485e-06 	-1.87668e-06 30.0007 	-8.48485e-06 	-1.87668e-06 30.0007 	-8.48484e-06 	-1.87668e-06 30.0003 	-3.61932e-06 	-4.47431e-06 30.0007 	-8.37152e-06 	-1.73884e-06 30.0007 	-8.37152e-06 	-1.73884e-06 30.0007 	-8.37151e-06 	-1.73884e-06 30.0007 	-8.37151e-06 	-1.73884e-06 30.0004 	-9.68058e-08 	-4.54319e-06 30.0007 	-8.26e-06 	-1.59804e-06 30.0007 	-8.26e-06 	-1.59804e-06 30.0007 	-8.25999e-06 	-1.59803e-06 30.0007 	-8.25999e-06 	-1.59803e-06 30.0004 	-9.85659e-08 	-4.27124e-06 30.0007 	-8.14801e-06 	-1.46324e-06 30.0007 	-8.14801e-06 	-1.46323e-06 30.0007 	-8.148e-06 	-1.46323e-06 30.0007 	-8.148e-06 	-1.46323e-06 30.0004 	-1.00311e-07 	-3.98927e-06 30.0007 	-8.01995e-06 	-1.32073e-06 30.0007 	-8.01995e-06 	-1.32073e-06 30.0007 	-8.01994e-06 	-1.32073e-06 30.0007 	-8.01994e-06 	-1.32073e-06 30.0004 	-3.25102e-06 	-3.37795e-06 30.0007 	-7.88117e-06 	-1.16801e-06 30.0007 	-7.88117e-06 	-1.16801e-06 30.0007 	-7.88116e-06 	-1.16801e-06 30.0007 	-7.88116e-06 	-1.16801e-06 30.0004 	-1.0376e-07 	-3.40289e-06 30.0007 	-7.74527e-06 	-1.00788e-06 30.0007 	-7.74527e-06 	-1.00788e-06 30.0007 	-7.74526e-06 	-1.00788e-06 30.0007 	-7.74526e-06 	-1.00788e-06 30.0004 	-1.05487e-07 	-3.10328e-06 30.0007 	-7.61114e-06 	-8.41869e-07 30.0007 	-7.61114e-06 	-8.41868e-07 30.0007 	-7.61114e-06 	-8.41868e-07 30.0007 	-7.61114e-06 	-8.41868e-07 30.0004 	-2.93188e-06 	-2.48789e-06 30.0007 	-7.47538e-06 	-6.70218e-07 30.0007 	-7.47538e-06 	-6.70218e-07 30.0007 	-7.47538e-06 	-6.70218e-07 30.0007 	-7.47538e-06 	-6.70218e-07 30.0004 	-2.82543e-06 	-2.18313e-06 30.0007 	-7.34329e-06 	-4.97065e-07 30.0007 	-7.34329e-06 	-4.97065e-07 30.0007 	-7.34329e-06 	-4.97065e-07 30.0007 	-7.34329e-06 	-4.97065e-07 30.0004 	-1.10607e-07 	-2.17112e-06 30.0007 	-7.21551e-06 	-3.17339e-07 30.0007 	-7.21551e-06 	-3.17339e-07 30.0007 	-7.21551e-06 	-3.17339e-07 30.0007 	-7.21551e-06 	-3.17339e-07 30.0004 	-1.12295e-07 	-1.85338e-06 30.0007 	-7.09878e-06 	-1.38233e-07 30.0007 	-7.09878e-06 	-1.38233e-07 30.0007 	-7.09878e-06 	-1.38233e-07 30.0007 	-7.09878e-06 	-1.38233e-07 30.0004 	-1.13961e-07 	-1.54904e-06 30.0007 	-6.98546e-06 	4.08354e-08 30.0007 	-6.98546e-06 	4.08354e-08 30.0007 	-6.98546e-06 	4.08354e-08 30.0007 	-6.98546e-06 	4.08354e-08 30.0004 	-2.43902e-06 	-9.58513e-07 30.0007 	-6.87187e-06 	2.14649e-07 30.0007 	-6.87187e-06 	2.14649e-07 30.0007 	-6.87187e-06 	2.14649e-07 30.0007 	-6.87187e-06 	2.14649e-07 30.0004 	-2.34743e-06 	-6.82312e-07 30.0007 	-6.75378e-06 	3.90702e-07 30.0007 	-6.75378e-06 	3.90702e-07 30.0007 	-6.75378e-06 	3.90702e-07 30.0007 	-6.75379e-06 	3.90702e-07 30.0004 	-1.18975e-07 	-7.09789e-07 30.0007 	-6.64333e-06 	5.64358e-07 30.0007 	-6.64333e-06 	5.64359e-07 30.0007 	-6.64333e-06 	5.64359e-07 30.0007 	-6.64333e-06 	5.64359e-07 30.0004 	-2.16713e-06 	-1.45453e-07 30.0007 	-6.53635e-06 	7.27384e-07 30.0007 	-6.53635e-06 	7.27384e-07 30.0007 	-6.53635e-06 	7.27385e-07 30.0007 	-6.53636e-06 	7.27385e-07 30.0004 	-2.08147e-06 	1.13824e-07 30.0007 	-6.43106e-06 	8.78823e-07 30.0007 	-6.43106e-06 	8.78823e-07 30.0007 	-6.43107e-06 	8.78823e-07 30.0007 	-6.43107e-06 	8.78823e-07 30.0004 	-1.23928e-07 	7.05612e-08 30.0007 	-6.32356e-06 	1.01778e-06 30.0007 	-6.32356e-06 	1.01778e-06 30.0007 	-6.32356e-06 	1.01778e-06 30.0007 	-6.32356e-06 	1.01778e-06 30.0004 	-1.25536e-07 	3.15794e-07 30.0007 	-6.21719e-06 	1.14062e-06 30.0007 	-6.21719e-06 	1.14062e-06 30.0007 	-6.2172e-06 	1.14062e-06 30.0007 	-6.2172e-06 	1.14062e-06 30.0004 	-1.27123e-07 	5.45514e-07 30.0007 	-6.11593e-06 	1.25632e-06 30.0007 	-6.11593e-06 	1.25632e-06 30.0007 	-6.11593e-06 	1.25632e-06 30.0007 	-6.11593e-06 	1.25632e-06 30.0004 	-1.76468e-06 	1.03207e-06 30.0007 	-6.0232e-06 	1.37127e-06 30.0007 	-6.0232e-06 	1.37127e-06 30.0007 	-6.02321e-06 	1.37127e-06 30.0007 	-6.02321e-06 	1.37127e-06 30.0004 	-1.30228e-07 	9.36934e-07 30.0007 	-5.94354e-06 	1.4885e-06 30.0007 	-5.94354e-06 	1.4885e-06 30.0007 	-5.94355e-06 	1.4885e-06 30.0007 	-5.94355e-06 	1.4885e-06 30.0004 	-1.31729e-07 	1.10455e-06 30.0007 	-5.87231e-06 	1.59289e-06 30.0007 	-5.87231e-06 	1.59289e-06 30.0007 	-5.87232e-06 	1.59289e-06 30.0007 	-5.87232e-06 	1.59289e-06 30.0004 	-1.59178e-06 	1.53876e-06 30.0007 	-5.80268e-06 	1.67932e-06 30.0007 	-5.80269e-06 	1.67932e-06 30.0007 	-5.80269e-06 	1.67932e-06 30.0007 	-5.80269e-06 	1.67932e-06 30.0003 	-1.54456e-06 	1.67821e-06 30.0007 	-5.73464e-06 	1.75011e-06 30.0007 	-5.73464e-06 	1.75011e-06 30.0007 	-5.73464e-06 	1.75012e-06 30.0007 	-5.73465e-06 	1.75012e-06 30.0003 	-1.36409e-07 	1.52472e-06 30.0006 	-5.66947e-06 	1.80982e-06 30.0006 	-5.66948e-06 	1.80982e-06 30.0006 	-5.66948e-06 	1.80982e-06 30.0006 	-5.66949e-06 	1.80982e-06 30.0003 	-1.37947e-07 	1.63227e-06 30.0006 	-5.60937e-06 	1.85995e-06 30.0006 	-5.60937e-06 	1.85995e-06 30.0006 	-5.60938e-06 	1.85995e-06 30.0006 	-5.60938e-06 	1.85995e-06 30.0003 	-1.39396e-07 	1.724e-06 30.0006 	-5.55504e-06 	1.90044e-06 30.0006 	-5.55504e-06 	1.90045e-06 30.0006 	-5.55505e-06 	1.90045e-06 30.0006 	-5.55505e-06 	1.90045e-06 30.0003 	-1.38917e-06 	2.07103e-06 30.0006 	-5.50617e-06 	1.9311e-06 30.0006 	-5.50617e-06 	1.9311e-06 30.0006 	-5.50618e-06 	1.93111e-06 30.0006 	-5.50618e-06 	1.93111e-06 30.0003 	-1.36212e-06 	2.13096e-06 30.0006 	-5.46242e-06 	1.95184e-06 30.0006 	-5.46242e-06 	1.95184e-06 30.0006 	-5.46243e-06 	1.95184e-06 30.0006 	-5.46243e-06 	1.95185e-06 30.0003 	-1.43369e-07 	1.90827e-06 30.0006 	-5.42359e-06 	1.96279e-06 30.0006 	-5.4236e-06 	1.96279e-06 30.0006 	-5.4236e-06 	1.96279e-06 30.0006 	-5.4236e-06 	1.9628e-06 30.0003 	-1.3237e-06 	2.20766e-06 30.0006 	-5.38959e-06 	1.96432e-06 30.0006 	-5.38959e-06 	1.96432e-06 30.0006 	-5.3896e-06 	1.96432e-06 30.0006 	-5.3896e-06 	1.96432e-06 30.0003 	-1.3119e-06 	2.22554e-06 30.0006 	-5.36037e-06 	1.95692e-06 30.0006 	-5.36038e-06 	1.95692e-06 30.0006 	-5.36038e-06 	1.95692e-06 30.0006 	-5.36039e-06 	1.95692e-06 30.0003 	-1.47172e-07 	1.96617e-06 30.0005 	-5.33586e-06 	1.94112e-06 30.0005 	-5.33587e-06 	1.94112e-06 30.0005 	-5.33587e-06 	1.94112e-06 30.0005 	-5.33588e-06 	1.94112e-06 30.0003 	-1.484e-07 	1.96057e-06 30.0005 	-5.31582e-06 	1.91792e-06 30.0005 	-5.31582e-06 	1.91793e-06 30.0005 	-5.31582e-06 	1.91793e-06 30.0005 	-5.31583e-06 	1.91793e-06 30.0003 	-1.49593e-07 	1.94424e-06 30.0005 	-5.30017e-06 	1.88799e-06 30.0005 	-5.30018e-06 	1.88799e-06 30.0005 	-5.30018e-06 	1.88799e-06 30.0005 	-5.30018e-06 	1.88799e-06 30.0003 	-1.30927e-06 	2.179e-06 30.0005 	-5.28879e-06 	1.85189e-06 30.0005 	-5.28879e-06 	1.85189e-06 30.0005 	-5.28879e-06 	1.85189e-06 30.0005 	-5.2888e-06 	1.85189e-06 30.0003 	-1.51896e-07 	1.8823e-06 30.0005 	-5.28146e-06 	1.81006e-06 30.0005 	-5.28147e-06 	1.81007e-06 30.0005 	-5.28147e-06 	1.81007e-06 30.0005 	-5.28147e-06 	1.81007e-06 30.0003 	-1.52996e-07 	1.83818e-06 30.0005 	-5.27797e-06 	1.76314e-06 30.0005 	-5.27797e-06 	1.76314e-06 30.0005 	-5.27798e-06 	1.76314e-06 30.0005 	-5.27798e-06 	1.76315e-06 30.0003 	-1.34842e-06 	2.04408e-06 30.0005 	-5.27809e-06 	1.7116e-06 30.0005 	-5.27809e-06 	1.7116e-06 30.0005 	-5.2781e-06 	1.7116e-06 30.0005 	-5.2781e-06 	1.71161e-06 30.0003 	-1.36847e-06 	1.98424e-06 30.0005 	-5.28163e-06 	1.65597e-06 30.0005 	-5.28163e-06 	1.65597e-06 30.0005 	-5.28163e-06 	1.65597e-06 30.0005 	-5.28164e-06 	1.65597e-06 30.0002 	-1.56149e-07 	1.66281e-06 30.0005 	-5.28839e-06 	1.59665e-06 30.0005 	-5.28839e-06 	1.59665e-06 30.0005 	-5.28839e-06 	1.59666e-06 30.0005 	-5.2884e-06 	1.59666e-06 30.0002 	-1.57187e-07 	1.59256e-06 30.0004 	-5.2983e-06 	1.53413e-06 30.0004 	-5.2983e-06 	1.53413e-06 30.0004 	-5.2983e-06 	1.53413e-06 30.0004 	-5.29831e-06 	1.53413e-06 30.0002 	-1.58246e-07 	1.51769e-06 30.0004 	-5.3112e-06 	1.46887e-06 30.0004 	-5.31121e-06 	1.46887e-06 30.0004 	-5.31121e-06 	1.46887e-06 30.0004 	-5.31121e-06 	1.46887e-06 30.0002 	-1.48009e-06 	1.69062e-06 30.0004 	-5.32671e-06 	1.40141e-06 30.0004 	-5.32671e-06 	1.40141e-06 30.0004 	-5.32671e-06 	1.40141e-06 30.0004 	-5.32672e-06 	1.40141e-06 30.0002 	-1.5146e-06 	1.60713e-06 30.0004 	-5.34459e-06 	1.33216e-06 30.0004 	-5.3446e-06 	1.33216e-06 30.0004 	-5.3446e-06 	1.33216e-06 30.0004 	-5.3446e-06 	1.33216e-06 30.0002 	-1.61463e-07 	1.27187e-06 30.0004 	-5.3646e-06 	1.26145e-06 30.0004 	-5.3646e-06 	1.26145e-06 30.0004 	-5.36461e-06 	1.26145e-06 30.0004 	-5.36461e-06 	1.26146e-06 30.0002 	-1.58992e-06 	1.4325e-06 30.0004 	-5.38639e-06 	1.18978e-06 30.0004 	-5.3864e-06 	1.18978e-06 30.0004 	-5.3864e-06 	1.18978e-06 30.0004 	-5.3864e-06 	1.18978e-06 30.0002 	-1.63041e-06 	1.34242e-06 30.0004 	-5.41e-06 	1.11745e-06 30.0004 	-5.41e-06 	1.11745e-06 30.0004 	-5.41e-06 	1.11745e-06 30.0004 	-5.41e-06 	1.11745e-06 30.0002 	-1.64474e-07 	1.00608e-06 30.0004 	-5.43517e-06 	1.04477e-06 30.0004 	-5.43517e-06 	1.04478e-06 30.0004 	-5.43517e-06 	1.04478e-06 30.0004 	-5.43517e-06 	1.04478e-06 30.0002 	-1.65431e-07 	9.15613e-07 30.0004 	-5.46079e-06 	9.72241e-07 30.0004 	-5.46079e-06 	9.72242e-07 30.0004 	-5.46079e-06 	9.72242e-07 30.0004 	-5.46079e-06 	9.72242e-07 30.0002 	-1.66329e-07 	8.24991e-07 30.0004 	-5.4868e-06 	8.99463e-07 30.0004 	-5.4868e-06 	8.99463e-07 30.0004 	-5.4868e-06 	8.99464e-07 30.0004 	-5.48681e-06 	8.99464e-07 30.0002 	-1.8073e-06 	9.75431e-07 30.0004 	-5.51356e-06 	8.25932e-07 30.0004 	-5.51356e-06 	8.25933e-07 30.0004 	-5.51356e-06 	8.25933e-07 30.0004 	-5.51356e-06 	8.25933e-07 30.0002 	-1.68017e-07 	6.43624e-07 30.0003 	-5.5433e-06 	7.51974e-07 30.0003 	-5.5433e-06 	7.51975e-07 30.0003 	-5.5433e-06 	7.51975e-07 30.0003 	-5.5433e-06 	7.51975e-07 30.0002 	-1.68852e-07 	5.52631e-07 30.0003 	-5.57776e-06 	6.77433e-07 30.0003 	-5.57776e-06 	6.77433e-07 30.0003 	-5.57776e-06 	6.77433e-07 30.0003 	-5.57776e-06 	6.77433e-07 30.0002 	-1.95565e-06 	7.01324e-07 30.0003 	-5.61459e-06 	6.04364e-07 30.0003 	-5.61459e-06 	6.04364e-07 30.0003 	-5.61459e-06 	6.04364e-07 30.0003 	-5.61459e-06 	6.04365e-07 30.0002 	-2.00784e-06 	6.11694e-07 30.0003 	-5.65072e-06 	5.34657e-07 30.0003 	-5.65072e-06 	5.34657e-07 30.0003 	-5.65073e-06 	5.34657e-07 30.0003 	-5.65073e-06 	5.34658e-07 30.0002 	-1.71338e-07 	2.80934e-07 30.0003 	-5.68183e-06 	4.67638e-07 30.0003 	-5.68183e-06 	4.67638e-07 30.0003 	-5.68183e-06 	4.67638e-07 30.0003 	-5.68183e-06 	4.67638e-07 30.0002 	-1.72167e-07 	1.97321e-07 30.0003 	-5.71024e-06 	4.03198e-07 30.0003 	-5.71024e-06 	4.03198e-07 30.0003 	-5.71024e-06 	4.03198e-07 30.0003 	-5.71024e-06 	4.03198e-07 30.0002 	-1.72958e-07 	1.16392e-07 30.0003 	-5.73839e-06 	3.39235e-07 30.0003 	-5.73839e-06 	3.39235e-07 30.0003 	-5.73839e-06 	3.39235e-07 30.0003 	-5.73839e-06 	3.39235e-07 30.0002 	-2.2011e-06 	2.74096e-07 30.0003 	-5.76634e-06 	2.75267e-07 30.0003 	-5.76635e-06 	2.75267e-07 30.0003 	-5.76635e-06 	2.75267e-07 30.0003 	-5.76635e-06 	2.75267e-07 30.0002 	-2.24802e-06 	1.96354e-07 30.0003 	-5.79317e-06 	2.10792e-07 30.0003 	-5.79317e-06 	2.10792e-07 30.0003 	-5.79317e-06 	2.10792e-07 30.0003 	-5.79317e-06 	2.10792e-07 30.0002 	-1.75151e-07 	-1.0915e-07 30.0003 	-5.82122e-06 	1.48796e-07 30.0003 	-5.82122e-06 	1.48796e-07 30.0003 	-5.82122e-06 	1.48796e-07 30.0003 	-5.82122e-06 	1.48796e-07 30.0002 	-2.34182e-06 	4.46738e-08 30.0003 	-5.85046e-06 	9.0002e-08 30.0003 	-5.85046e-06 	9.0002e-08 30.0003 	-5.85046e-06 	9.0002e-08 30.0003 	-5.85046e-06 	9.0002e-08 30.0002 	-2.38913e-06 	-2.91007e-08 30.0003 	-5.88089e-06 	3.4831e-08 30.0003 	-5.88089e-06 	3.4831e-08 30.0003 	-5.88089e-06 	3.4831e-08 30.0003 	-5.88089e-06 	3.4831e-08 30.0002 	-1.77174e-07 	-3.30773e-07 30.0003 	-5.91274e-06 	-1.70421e-08 30.0003 	-5.91274e-06 	-1.70421e-08 30.0003 	-5.91274e-06 	-1.70421e-08 30.0003 	-5.91274e-06 	-1.70421e-08 30.0002 	-1.7782e-07 	-4.01804e-07 30.0003 	-5.94584e-06 	-6.9017e-08 30.0003 	-5.94584e-06 	-6.9017e-08 30.0003 	-5.94584e-06 	-6.9017e-08 30.0003 	-5.94584e-06 	-6.9017e-08 30.0002 	-1.78418e-07 	-4.67074e-07 30.0003 	-5.97777e-06 	-1.23279e-07 30.0003 	-5.97777e-06 	-1.23279e-07 30.0003 	-5.97777e-06 	-1.23279e-07 30.0003 	-5.97777e-06 	-1.23279e-07 30.0002 	-2.58065e-06 	-3.01376e-07 30.0003 	-6.00552e-06 	-1.77921e-07 30.0003 	-6.00552e-06 	-1.77921e-07 30.0003 	-6.00552e-06 	-1.77921e-07 30.0003 	-6.00552e-06 	-1.77921e-07 30.0002 	-1.79584e-07 	-5.84883e-07 30.0003 	-6.02966e-06 	-2.29175e-07 30.0003 	-6.02966e-06 	-2.29175e-07 30.0003 	-6.02966e-06 	-2.29175e-07 30.0003 	-6.02966e-06 	-2.29175e-07 30.0002 	-1.80186e-07 	-6.42143e-07 30.0003 	-6.05288e-06 	-2.76137e-07 30.0003 	-6.05288e-06 	-2.76137e-07 30.0003 	-6.05288e-06 	-2.76137e-07 30.0003 	-6.05288e-06 	-2.76137e-07 30.0002 	-2.70868e-06 	-4.78979e-07 30.0003 	-6.07671e-06 	-3.19619e-07 30.0003 	-6.07671e-06 	-3.19619e-07 30.0003 	-6.07671e-06 	-3.19619e-07 30.0003 	-6.07671e-06 	-3.19619e-07 30.0002 	-2.74971e-06 	-5.34023e-07 30.0003 	-6.10103e-06 	-3.61143e-07 30.0003 	-6.10103e-06 	-3.61143e-07 30.0003 	-6.10103e-06 	-3.61143e-07 30.0003 	-6.10103e-06 	-3.61143e-07 30.0002 	-1.8191e-07 	-8.03779e-07 30.0003 	-6.12506e-06 	-4.01338e-07 30.0003 	-6.12506e-06 	-4.01337e-07 30.0003 	-6.12506e-06 	-4.01337e-07 30.0003 	-6.12506e-06 	-4.01337e-07 30.0001 	-1.82447e-07 	-8.53096e-07 30.0003 	-6.14842e-06 	-4.40331e-07 30.0003 	-6.14842e-06 	-4.40331e-07 30.0003 	-6.14842e-06 	-4.40331e-07 30.0003 	-6.14842e-06 	-4.40331e-07 30.0001 	-1.82963e-07 	-9.00304e-07 30.0003 	-6.17105e-06 	-4.77954e-07 30.0003 	-6.17104e-06 	-4.77954e-07 30.0003 	-6.17104e-06 	-4.77953e-07 30.0003 	-6.17104e-06 	-4.77953e-07 30.0001 	-2.90916e-06 	-7.31454e-07 30.0003 	-6.1928e-06 	-5.1417e-07 30.0003 	-6.1928e-06 	-5.1417e-07 30.0003 	-6.1928e-06 	-5.1417e-07 30.0003 	-6.1928e-06 	-5.1417e-07 30.0001 	-2.94703e-06 	-7.7558e-07 30.0003 	-6.21378e-06 	-5.48787e-07 30.0003 	-6.21378e-06 	-5.48787e-07 30.0003 	-6.21378e-06 	-5.48787e-07 30.0003 	-6.21378e-06 	-5.48786e-07 30.0001 	-1.84466e-07 	-1.02951e-06 30.0003 	-6.23392e-06 	-5.81997e-07 30.0003 	-6.23391e-06 	-5.81997e-07 30.0003 	-6.23391e-06 	-5.81997e-07 30.0003 	-6.23391e-06 	-5.81997e-07 30.0001 	-3.02003e-06 	-8.57467e-07 30.0003 	-6.25315e-06 	-6.13843e-07 30.0003 	-6.25315e-06 	-6.13842e-07 30.0003 	-6.25315e-06 	-6.13842e-07 30.0003 	-6.25315e-06 	-6.13842e-07 30.0001 	-3.05511e-06 	-8.95476e-07 30.0003 	-6.27163e-06 	-6.44369e-07 30.0003 	-6.27163e-06 	-6.44368e-07 30.0003 	-6.27163e-06 	-6.44368e-07 30.0003 	-6.27163e-06 	-6.44368e-07 30.0001 	-1.85869e-07 	-1.14082e-06 30.0003 	-6.28944e-06 	-6.73569e-07 30.0003 	-6.28944e-06 	-6.73569e-07 30.0003 	-6.28944e-06 	-6.73569e-07 30.0003 	-6.28944e-06 	-6.73569e-07 30.0001 	-1.86326e-07 	-1.17457e-06 30.0003 	-6.30643e-06 	-7.01387e-07 30.0003 	-6.30643e-06 	-7.01387e-07 30.0003 	-6.30643e-06 	-7.01387e-07 30.0003 	-6.30643e-06 	-7.01387e-07 30.0001 	-1.86762e-07 	-1.20666e-06 30.0003 	-6.32248e-06 	-7.27821e-07 30.0003 	-6.32248e-06 	-7.27821e-07 30.0003 	-6.32248e-06 	-7.27821e-07 30.0003 	-6.32248e-06 	-7.27821e-07 30.0001 	-3.18653e-06 	-1.031e-06 30.0003 	-6.33771e-06 	-7.52934e-07 30.0003 	-6.33771e-06 	-7.52934e-07 30.0003 	-6.33771e-06 	-7.52934e-07 30.0003 	-6.3377e-06 	-7.52934e-07 30.0001 	-1.87598e-07 	-1.26594e-06 30.0003 	-6.35221e-06 	-7.76903e-07 30.0003 	-6.35221e-06 	-7.76903e-07 30.0003 	-6.35221e-06 	-7.76903e-07 30.0003 	-6.35221e-06 	-7.76903e-07 30.0001 	-1.88008e-07 	-1.2933e-06 30.0003 	-6.36599e-06 	-7.99775e-07 30.0003 	-6.36599e-06 	-7.99775e-07 30.0003 	-6.36599e-06 	-7.99775e-07 30.0003 	-6.36599e-06 	-7.99775e-07 30.0001 	-3.2759e-06 	-1.11605e-06 30.0003 	-6.37904e-06 	-8.21506e-07 30.0003 	-6.37904e-06 	-8.21506e-07 30.0003 	-6.37904e-06 	-8.21505e-07 30.0003 	-6.37903e-06 	-8.21505e-07 30.0001 	-3.30401e-06 	-1.14153e-06 30.0003 	-6.39138e-06 	-8.41941e-07 30.0003 	-6.39137e-06 	-8.41941e-07 30.0003 	-6.39137e-06 	-8.41941e-07 30.0003 	-6.39137e-06 	-8.4194e-07 30.0001 	-1.89178e-07 	-1.36684e-06 30.0003 	-6.40298e-06 	-8.61338e-07 30.0003 	-6.40298e-06 	-8.61337e-07 30.0003 	-6.40298e-06 	-8.61337e-07 30.0003 	-6.40298e-06 	-8.61337e-07 30.0001 	-1.89554e-07 	-1.38872e-06 30.0003 	-6.41389e-06 	-8.79778e-07 30.0003 	-6.41389e-06 	-8.79777e-07 30.0003 	-6.41389e-06 	-8.79777e-07 30.0003 	-6.41389e-06 	-8.79777e-07 30.0001 	-1.89921e-07 	-1.40937e-06 30.0003 	-6.42411e-06 	-8.97264e-07 30.0003 	-6.42411e-06 	-8.97264e-07 30.0003 	-6.42411e-06 	-8.97264e-07 30.0003 	-6.4241e-06 	-8.97264e-07 30.0001 	-3.40829e-06 	-1.23052e-06 30.0003 	-6.43365e-06 	-9.13852e-07 30.0003 	-6.43365e-06 	-9.13852e-07 30.0003 	-6.43365e-06 	-9.13852e-07 30.0003 	-6.43365e-06 	-9.13851e-07 30.0001 	-3.43242e-06 	-1.24985e-06 30.0003 	-6.44259e-06 	-9.29539e-07 30.0003 	-6.44258e-06 	-9.29538e-07 30.0003 	-6.44258e-06 	-9.29538e-07 30.0003 	-6.44258e-06 	-9.29538e-07 30.0001 	-1.91009e-07 	-1.46454e-06 30.0003 	-6.45089e-06 	-9.44389e-07 30.0003 	-6.45088e-06 	-9.44389e-07 30.0003 	-6.45088e-06 	-9.44389e-07 30.0003 	-6.45088e-06 	-9.44388e-07 30.0001 	-3.47852e-06 	-1.28534e-06 30.0003 	-6.45854e-06 	-9.58397e-07 30.0003 	-6.45854e-06 	-9.58396e-07 30.0003 	-6.45853e-06 	-9.58396e-07 30.0003 	-6.45853e-06 	-9.58396e-07 30.0001 	-3.50057e-06 	-1.30161e-06 30.0003 	-6.46561e-06 	-9.71691e-07 30.0003 	-6.46561e-06 	-9.71691e-07 30.0003 	-6.4656e-06 	-9.71691e-07 30.0003 	-6.4656e-06 	-9.7169e-07 30.0001 	-1.92