# vtk DataFile Version 2.0
sampleSurface
ASCII
DATASET POLYDATA
POINTS 9879 float
6 2.24045e-22 1 6 -4.23516e-22 0 5 0 0 5 4.23516e-22
0.5 5 5.02844e-23 1 7 1.69508e-17 0 6 2.40786e-23 1
7 -4.23516e-22 1 8 -1.0754e-16 0 8 4.23516e-22 1 9
-7.28995e-17 0 9 4.23516e-22 1 10 5.03714e-17 0 10 -4.23516e-22
1 11 -1.10109e-16 0 11 0 1 12 1.14673e-16 0
12 0 1 13 1.07357e-16 0 13 -2.11758e-22 1 14
-3.31971e-17 0 14 0 1 15 0 1 15 5.68977e-17
0 -5 -1.61559e-27 0 -5 1.61559e-27 0 -5 0 0.5
-5 8.07794e-28 0.5 -2.89285 0 0 -3.00033 0 0 -3.00033
-8.47033e-22 0.0932873 -1.00051 -1.01779e-17 0.124742 -0.875522 0 0.124691 -0.875461 -8.40257e-19
0 -1.00046 0 0 0.015625 1.94517e-24 2.2091e-05 5.35603e-05 -1.21492e-24 0.0155233
0.0156432 3.30872e-24 0.0155555 1.00057 -5.42101e-19 0.0152422 1.00056 0 0.0308735 1.03181
0 0.0308728 1.03183 -1.89735e-19 0 1.00058 0 0 2 1.21939e-17
0.125 2 2.01948e-28 0.25 2.25 0 0.25 2.25 -1.26744e-17 0
2 2.01948e-28 0 3 2.86199e-17 0.25 3 3.16479e-17 0.5 3.5
2.01948e-28 0.5 3.5 -1.71188e-17 0 3 2.01948e-28 0 4 0
0 4 0 0 4 5.4967e-18 0.5 4 1.00974e-28 0.5
6 2.52435e-29 1 5 0 1 6 2.96289e-24 1 5
3.35588e-25 2 6 4.23516e-22 2 7 4.23516e-22 2 8 0
2 9 -4.23516e-22 2 10 0 2 11 2.11758e-22 2
12 0 2 13 -2.11758e-22 2 14 0 2 15
2.11758e-22 2 -5 0 1 -5 0 1.5 -5 0
1.5 -5 0 1 -1.00051 0 1.00028 -1.0005 1.69407e-21 1.07098
-0.875582 -3.38813e-21 1.04431 -0.875573 0 1.00033 -0.000176494 0 1.00043 -0.000187004
1.35525e-18 1.03171 0.0310738 0 1.03178 0.0310423 5.42101e-20 1.0005 0.0154335 0
1.00047 2.25 0 1 2 5.03191e-18 1 2 -8.15581e-18 1.125
2 6.36148e-18 1.25 2.25 0 1.25 3.5 0 1 3
-7.24998e-18 1 3 -1.28933e-17 1.25 3 -3.74554e-18 1.5 3.5 0
1.5 4 0 1 4 2.0972e-17 1.5 4.50019 3.38813e-21 1.50011
4.50001 3.17637e-22 1.0073 4 -1.00974e-28 1 5 -4.34409e-17 1.5 5
-2.52435e-29 2 5 1.60269e-22 2 5 4.23516e-22 2.5 5 0
3 6 -4.23516e-22 3 7 4.23516e-22 3 8 4.23516e-22 3
9 0 3 10 0 3 11 -2.11758e-22 3 12
2.11758e-22 3 13 -2.11758e-22 3 14 2.11758e-22 3 15 0
3 -5 0 2 -5 0 2 -5 0 2
-0.750281 -2.71051e-20 2.0005 -0.996618 -5.0822e-21 2.00034 -0.884887 3.38813e-21 2.25032 -0.750178
-2.73083e-17 2.25039 0.124965 6.77626e-21 2.00046 0.0589837 -3.38813e-21 2.00046 0.102874 -1.69407e-21
2.25032 0.249982 -1.24887e-17 2.25032 0.249997 1.35525e-20 2.00047 1.0005 1.35525e-20 2.00056
1.00037 1.35525e-20 2.25063 1.25045 -1.35525e-20 2.25054 1.25043 -1.69813e-17 2.00047 1.12546
-1.35525e-20 2.00051 2.00018 3.38813e-21 2.00013 2.00027 1.07133e-17 2.25026 2.25027 6.77626e-21
2.25023 2.25017 6.77626e-21 2.00011 3.5 0 2 3.00014 -1.11944e-17 2.00005
3.00014 2.41235e-17 2.25008 3.00001 2.0117e-21 2.49701 3.5 0 2 4
-1.32349e-23 2 4.00001 0 2.00871 4.5 -3.02248e-22 2.5 4.5 2.52435e-29
2.5 4.50017 2.11758e-22 2.00014 -5 0 4 -4.00035 0 4
-4.0004 -5.66496e-18 3.5 -4.00039 0 3 -4.5002 0 3 -5
-9.5459e-22 3 5 -8.47033e-22 3.5 5 2.1923e-22 4 5 1.90287e-22
4 6 4.23516e-22 4 7 0 4 8 0 4
9 4.23516e-22 4 10 0 4 11 2.11758e-22 4 12
2.11758e-22 4 13 0 4 14 2.11758e-22 4 15 0
4 -5 0 3 -5 0 4 -0.750077 -1.69407e-21 3.00019
-0.975165 6.35275e-22 3.00002 -0.50002 0 3.43551 -0.50014 0 3.00035 0.249985
0 3.00023 0.097637 1.69407e-21 3.00023 0.500042 3.38813e-21 3.26572 0.500014 0
3.00034 1.00005 -1.35525e-20 3.00048 1.00018 8.47033e-22 3.50026 1.50019 0 3.50023
1.50022 -1.55041e-17 3.00052 1.2501 0 3.00055 2.00039 0 3.00045 2.00025
6.77626e-21 3.50028 2.50024 -6.77626e-21 3.50026 2.50027 -2.15688e-17 3.00027 2.25034 0
3.00035 3.0002 -1.69407e-21 3.00018 3.00017 9.52404e-18 3.50018 3.50015 3.38813e-21 3.50016
3.50018 0 3.00016 4.00014 -6.90484e-17 3.50015 4.41401 8.47033e-22 3.50003 4.5
2.24255e-22 3 4.5 0 3 4.00015 0 3.00016 5 0
4 -5 -4.56216e-21 5 -4.00031 0 5 -3.00034 1.35525e-20 5.00001
-3.0004 2.50722e-18 4.5 -3.00052 0 4 -3.50051 -3.61446e-17 4 5
-5.3804e-23 4 4.5 0 4 4.01315 -1.98523e-22 4 6 -1.77009e-22
5 7 8.49641e-23 5 8 -2.44576e-22 5 9 -1.79481e-22 5
10 -8.26783e-24 5 11 3.71066e-23 5 12 7.40495e-23 5 13
-7.46022e-23 5 13 -3.57483e-23 5 14 -2.11758e-22 5 15 0
5 -5 1.00974e-28 5 0.5 0 4 0.499998 0 4
0.5 0 4 1 -1.61559e-27 4 1 -1.61559e-27 4 1.5
-5.24977e-23 4 1.5 0 4 2.00017 -3.38813e-21 4.00019 2 -4.13239e-17
4.5 2.5 0 4.5 2.50016 0 4.00018 3 0 4
3 2.76547e-17 4.5 3.5 -2.52435e-29 4.5 3.5 0 4 5
0 5 4 0 4 4 -3.3529e-17 4.5 4 1.26218e-29
5 6 3.15544e-30 5 7 0 5 8 0 5
9 3.9443e-31 5 10 0 5 11 -9.86076e-32 5 12
-4.93038e-32 5 13 1.2326e-32 5 -5 -1.50785e-21 6 -4.00028 0
6 -3 -2.11758e-22 6 -2 -2.11758e-22 5 -2.50019 3.01205e-17 5.00003
-2 0 6 -1 -2.35712e-17 5 -1.5 1.39417e-17 5 -1
8.47033e-22 6 -1.46255e-06 1.4195e-17 5 -0.500002 2.00704e-17 5 -4.41788e-07 4.23516e-22
6 1 1.75768e-17 5 0.499999 -4.03442e-18 5 1 0 6
2 -1.6111e-22 6 1.5 -2.46127e-23 5 14 -2.49584e-23 6 15
6.49997e-23 6 -5 0 6 2 -1.00974e-28 6 2 -6.34437e-17
5 1.5 4.03897e-28 5 3 5.04871e-29 6 3 -2.10964e-17 5
2.5 0 5 4 -1.26218e-29 6 3.5 2.52435e-29 5 5
-6.31089e-30 6 6 -3.15544e-30 6 7 1.57772e-30 6 8 7.88861e-31
6 9 -3.9443e-31 6 10 0 6 11 0 6
12 -2.46519e-32 6 13 1.2326e-32 6 14 0 6 15
-1.52652e-17 6 -5 -6.17313e-21 7 -4.00025 1.35525e-20 7 -3 6.2323e-23
7 -3 5.04871e-29 7 -3 1.09771e-22 7 -2 4.23516e-22 7
-1 -4.23516e-22 7 -6.20385e-08 0 7 1 0 7 2
0 7 -5 -2.52435e-29 7 -3 0 7 2 5.04871e-29
7 3 2.52435e-29 7 4 0 7 5 6.31089e-30 7
6 -3.15544e-30 7 7 0 7 8 3.9443e-31 7 9
0 7 10 -9.86076e-32 7 11 0 7 12 1.2326e-32
7 13 0 7 14 0 7 15 -1.08141e-17 7
-5 1.7064e-23 8 -4 0 8 -3 1.32733e-22 7 -3
0 8 -2 0 8 -1 -4.23516e-22 8 -4.65216e-09 0
8 1 0 8 2 0 8 -5 7.6473e-18 8
2 -2.52435e-29 8 3 0 8 4 0 8 5
-6.31089e-30 8 6 1.57772e-30 8 7 0 8 8 3.9443e-31
8 9 0 8 10 9.86076e-32 8 11 0 8
12 1.2326e-32 8 13 0 8 14 0 8 15
0 8 1.98072e-05 -1.47443e-18 0.0155232 -6.78597e-10 6.46235e-27 0 -0.015625 1.89557e-19
0 -0.015607 0 0.0155222 0.015625 6.46235e-27 0 0.984621 -2.64274e-19 1.00027
1.00023 6.77626e-21 1.00025 1.00022 0 0.984609 0.984609 0 0.984627 -0.875589
0 0.875281 -1.00051 0 0.875232 -0.000168606 -7.04731e-19 0.984785 -0.0157783 0
0.984748 -0.0157891 0 1.0004 0.984964 -4.87891e-19 0 0.984951 0 0.0152386
0.0154375 2.71051e-20 0.984823 0.500347 0 0 0.484697 -1.40946e-18 0 0.484699
-2.71051e-20 0.0154073 0.50035 2.71051e-20 0.0153902 6.85113e-05 -6.74075e-34 0.497067 0.00351742 0
0.497921 0.00351735 -6.16298e-33 0.497919 0.500935 -5.29396e-23 0.500103 0.500923 1.81265e-19 0.484474
0.485343 0 0.48448 0.485354 -5.29396e-23 0.500107 -1.0005 0 1.12529 -0.875598
0 1.12535 -0.847656 0 1.75035 -0.875511 -8.67701e-18 1.75034 -1.00046 8.00954e-18
1.75027 -1.00043 4.23516e-22 2.00034 -0.000137327 0 2.00046 -0.000174407 -6.77626e-21 1.87558
-0.125203 0 1.87555 -0.125185 -4.78404e-18 2.0005 1.00026 0 1.03153 0.969013
6.77626e-21 1.00028 0.969038 8.80914e-19 1.03156 0.0614109 0 1.87557 -0.0314004 0
1.00037 -0.0314207 0 1.03167 -0.750309 -7.75205e-18 1.87547 -0.750381 0 1.75039
0.124961 0 1.87556 1.00049 5.54298e-18 1.87554 0.875516 1.35525e-20 1.87556 0.875507
0 2.00058 -0.442444 -4.23516e-22 0.0622773 -0.437776 0 0.0622817 -0.437709 -2.11758e-22
0.0234443 -0.0040072 3.0527e-19 0.500638 -0.000168277 0 0.500646 -2.94017e-06 0 0.497049
-0.00322378 0 0.496279 -0.492468 -5.29396e-23 0.500175 -0.469803 -2.11758e-22 0.500181 -0.469837
0 0.468841 -0.501073 0 0.468827 -0.501061 2.64698e-23 0.480492 -0.000101869 -1.47052e-19
0.504366 -0.00397949 -2.01948e-28 0.504355 -0.501028 0 0.522018 -0.501022 0 0.531434
-0.469779 0 0.531436 0.00364412 0 0.500984 0.00375691 0 0.504522 0.485366
0 0.514811 0.485366 0 0.515734 0.500948 0 0.515729 0.500947 -1.65436e-24
0.515118 -0.500391 3.52366e-19 0.0622223 -0.437669 4.23516e-22 0 -0.500304 0 0
-0.501042 0 0.500173 -0.50037 -5.42101e-20 1.00067 -0.43782 0 1.00061 -0.437881
5.42101e-20 0.938131 -0.500433 0 0.93818 0.500963 -5.14996e-19 0.984633 0.485343 0
0.984612 0.485309 -1.35525e-20 1.00027 0.500901 2.71051e-20 1.00034 -2.0003 0 0
-2.00031 0 0.249984 -1.75035 -6.77626e-21 0.249978 -1.75034 -2.12097e-18 0 -1.12549
1.69407e-21 0.0567975 -1.12551 -3.38813e-21 0.124883 -1.1051 0 0.12486 -2.00053 -4.06576e-19
0.750021 -2.00052 0 1.00001 -1.75043 0 1 -1.75044 1.35525e-20 0.750004
1.03145 0 1.00022 1.03142 0 0.968935 1.0002 -6.77626e-21 0.968969 -1.12548
0 0 -1.12547 0 0.875178 -1.12544 0 1.00021 -0.562867 -4.63496e-18
0 -0.562923 0 0.0621015 -0.875622 1.40946e-18 0.499992 -0.875629 -1.40946e-18 0.43746
-0.875614 0 0.37493 -1.00058 -1.35525e-20 0.374847 -1.0006 -6.77626e-21 0.499982 -0.501071
0 0.459931 -0.501067 7.5513e-19 0.437262 -0.563478 0 0.437296 -0.563493 0
0.500081 1.875 7.07317e-18 0 1.875 0 0.125 2 -9.02096e-18 0.875
1.875 -1.00974e-28 0.875 1.875 0 1 -0.501021 2.64698e-23 0.532727 0.516516
0 0.515723 0.516516 -1.65436e-24 0.515322 -1.00059 3.04932e-18 0.625092 -0.875599 0
0.625021 -0.875605 0 0.562503 -0.563001 -5.42101e-20 0.938195 -0.562935 0 1.00068
-0.501004 6.60686e-20 0.562681 -0.563465 6.77626e-21 0.562645 0.515999 -2.71051e-20 0.0153741 0.515996
1.89735e-19 0 1.00002 0 0.499997 1.00004 6.91179e-19 0.484354 0.984415 3.38813e-21
0.484354 0.984397 0 0.499997 0.516504 -1.57919e-19 0.500096 0.516494 -4.23516e-22 0.484467
0.984397 0 0.515625 1.00002 0 0.515625 0.516455 3.25261e-19 1.00046 0.516567
-2.71051e-20 0.984687 -0.000486907 -2.11758e-22 0.751673 0.0150628 0 0.751704 0.0151069 -2.11758e-22
0.736039 -0.000466544 1.79846e-18 0.73608 0.250631 -1.05879e-22 0.499142 0.234996 0 0.4991
0.235042 0 0.51471 0.250685 1.77115e-18 0.514757 0.234396 1.59578e-18 0.751475 0.250021
2.64698e-23 0.751472 0.250098 0 0.735925 0.234416 0 0.735938 0.500674 0
1.03185 0.469677 2.71051e-20 1.00028 0.46947 -2.71051e-20 1.0318 -0.000487113 0 0.767278
0.0150573 0 0.767313 0.249988 1.48893e-23 0.985961 0.249988 0 0.985377 0.234363
0 0.98538 0.234363 8.27181e-25 1.00097 0.234889 9.09899e-24 1.00097 0.250006 2.3521e-18
0.76703 0.234384 0 0.767027 0.249988 -2.64698e-23 1.00096 0.250614 0 0.249941
0.237135 1.32349e-23 0.249938 0.250669 1.98523e-23 0.26291 0.484921 5.42101e-19 0.249634 0.484944
-5.42101e-20 0.265243 0.500584 0 0.265233 0.500562 5.42101e-20 0.249623 0.25266 0
[...]
POINT_DATA 9879
FIELD attributes 1
U 3 9879 float
24.6075 -0.00240517 0.524934 25 0 0 25 0 0 24.3523 -0.034413
1.2069 24.0056 0.000545591 1.63065 25 0 0 24.6075 -0.00240517 0.524934
24.6136 -0.00371953 0.540732 25 0 0 24.6203 -0.00413289 0.536957 25
0 0 24.6248 -0.0043748 0.529107 25 0 0 24.6292 -0.00458076
0.520179 25 0 0 24.6343 -0.00471391 0.510583 25 0 0
24.6395 -0.00477486 0.500632 25 0 0 24.6442 -0.00480268 0.490749 25
0 0 24.6494 -0.00481112 0.479758 24.6524 -0.00481098 0.473632 24.8598 -0.00806613
0.196119 25 0 0 25 0 0 25 0 0
25 8.86019e-13 -8.79315e-11 25 0 0 25 0 0 25.0003
5.77706e-06 -0.000779269 25.2124 0.000137589 -0.0846983 25.3158 -0.00016277 -0.127802 25 0
0 25 0 0 25.0037 -9.13844e-05 0.000226538 27.6334 -0.0621415 0.149435
27.5879 -0.0643489 0.159518 24.6657 -0.0686678 0.103065 24.7129 -0.0783508 0.232497 24.7089
-0.0737866 0.229684 25 0 0 25 0 0 24.8715 -0.068374
0.754517 24.8683 -0.0864246 1.68065 24.8204 -0.0910852 1.6023 25 0 0
25 0 0 24.8742 -0.0856021 1.23224 24.3178 -0.0828836 2.84848 24.1369
-0.0319138 1.58839 25 0 0 25 0 0 25 0
0 25 0 0 24.2009 -0.0378343 1.4816 24.2009 -0.0378343 1.4816
24.6075 -0.00240517 0.524934 24.0056 0.000545594 1.63065 24.6075 -0.00240517 0.524934 24.8885
0.0124234 0.564433 24.8096 0.00504794 0.381071 24.7941 0.00534582 0.375469 24.7881 0.00558226
0.36632 24.7848 0.00569207 0.359791 24.7823 0.00572335 0.355446 24.7804 0.00575904 0.352257
24.7788 0.00574565 0.349885 24.7774 0.0056991 0.34794 24.7758 0.0056616 0.347334 24.7748
0.00564804 0.347676 25 0 0 25 0 0 25 4.72097e-13
-7.03234e-11 25 7.49875e-13 -1.12195e-10 24.8219 0.00232057 -0.0940072 24.821 0.00221579 -0.0747608
24.7461 0.00335701 -0.0829963 24.7425 0.00349734 -0.0992903 23.1032 0.0631357 2.06513 23.3066
0.0565264 1.87704 23.2936 0.0605853 2.06075 23.0862 0.0677499 2.27676 23.0765 0.0659206
2.18615 23.0231 0.0726179 6.96254 23.1628 0.108456 8.7249 23.6482 0.173388 6.41538
24.1652 0.133724 3.9766 23.9323 0.111793 3.99851 23.6404 0.0109891 2.3535 23.0823
0.00785655 5.29817 23.6464 0.0827658 4.18483 24.4918 0.0607028 2.19369 24.4124 0.0262738
1.56044 23.6675 0.00708429 2.26171 24.3426 0.0286399 1.54221 24.2961 0.0291815 1.53385
23.7099 0.00411309 2.19689 23.6675 0.00708428 2.26171 24.357 0.0239087 1.31463 24.8885
0.0124234 0.564433 24.8885 0.0124234 0.564433 25.0231 0.0069643 0.297358 25.0224 0.00397217
0.165763 25.0182 0.00237398 0.118484 25.0148 0.00280116 0.110034 25.0131 0.00301754 0.107268
25.0111 0.00317893 0.106838 25.0085 0.00330763 0.107526 25.0055 0.00341888 0.108813 25.0024
0.00344352 0.110547 24.9995 0.00343006 0.11245 24.997 0.00342362 0.115223 24.9958 0.00342374
0.117066 25 0 0 25 0 0 25 2.32766e-13 -2.77317e-11
24.8796 0.00115726 0.055733 24.9073 0.000772287 0.0278654 24.9201 0.000675842 0.0395959 24.9107
0.000802552 0.0511897 24.8116 0.00372329 0.276872 24.8144 0.00341968 0.253198 24.8772 0.00205877
0.182077 24.8788 0.0023121 0.208396 24.8223 0.0040005 0.305299 24.8842 0.00616721 0.463482
24.9162 0.00347432 0.31226 24.9279 0.00381446 0.336272 24.899 0.00684322 0.499389 24.89
0.00679288 0.497553 24.9134 0.00938958 0.61175 24.9483 0.00511734 0.409022 24.9558 0.00583477
0.437516 24.9246 0.0107787 0.667543 24.9523 0.0119676 0.625425 24.9519 0.0153464 0.729451
24.9718 0.00917809 0.484354 24.9862 0.00534362 0.330526 24.9523 0.0119676 0.625425 24.9419
0.0138928 0.622557 24.9433 0.01376 0.617291 25.0237 0.00749439 0.327069 25.0237 0.00749439
0.327069 24.9279 0.0153811 0.638448 25 1.39061e-13 5.73099e-12 24.9992 9.78139e-06 0.000405316
24.9989 1.16378e-05 0.000142736 24.9988 1.22826e-05 -0.000270639 24.9996 5.68218e-06 -0.000216027 25
1.8736e-13 -7.09509e-12 25.0215 0.00234744 0.104991 25.0216 0.00126917 0.0660559 25.0216 0.00126917
0.0660559 25.0256 0.00135509 0.0592934 25.0285 0.00146989 0.0599933 25.0298 0.00156284 0.0609311
25.03 0.00162332 0.0612165 25.0297 0.00166363 0.0610465 25.0293 0.00169284 0.0608533 25.029
0.00171746 0.0607305 25.0287 0.00173687 0.0607192 25.0286 0.0017434 0.0607283 25.0287 0.00174276
0.0606941 25 0 0 25 0 0 24.9592 0.000329814 0.0349536
24.9651 0.000258188 0.0259131 24.9734 0.00025029 0.0341191 24.9567 0.000398783 0.0457837 24.9513
0.000727826 0.0909323 24.9521 0.000642542 0.0801284 24.9675 0.000582592 0.0809732 24.9566 0.000793327
0.101738 24.9662 0.000982837 0.12558 24.9828 0.000491088 0.0760901 24.9897 0.000570988 0.0865779
24.9771 0.00116838 0.143755 24.9704 0.00113456 0.14094 24.9864 0.00137181 0.158443 24.9966
0.000665435 0.0945303 25.0027 0.000777842 0.10086 24.9939 0.0016286 0.166622 24.9891 0.00161416
0.171155 25.0028 0.00198177 0.174265 25.0088 0.000986962 0.106372 25.0148 0.00121964 0.109644
25.0128 0.00253714 0.181838 25.0187 0.00150898 0.109288 25.02 0.00200136 0.110416 25.022
0.00416807 0.183424 25.022 0.00416807 0.183424 25.0195 0.00309582 0.182205 25.0216 0.00126917
0.0660559 25 7.84821e-14 6.78718e-12 24.9996 8.23524e-06 0.000714261 24.9988 1.82512e-05 0.00201532
24.9979 2.1685e-05 0.0022801 24.997 2.47417e-05 0.00190768 24.9983 1.64938e-05 0.000813186 25.0216
0.00126917 0.0660559 25.02 0.00120404 0.0749685 25.0184 0.00083567 0.0710292 25.0241 0.000545416
0.0291196 25.026 0.000675069 0.0279654 25.027 0.000774738 0.0265267 25.0275 0.000847535 0.0251667
25.0279 0.000902596 0.024105 25.0283 0.000943089 0.0234497 25.0286 0.000976763 0.023133 25.0289
0.00100079 0.0230307 25.0289 0.00100079 0.0230307 25.0295 0.0010138 0.0231183 25.0299 0.00101872
0.023206 25 0 0 24.9881 0.000241959 0.0425115 24.9881 0.000241958 0.0425115
24.9881 0.000241958 0.0425115 24.9919 0.000295914 0.0509846 24.9919 0.000295914 0.0509846 24.9968
0.000341032 0.0577588 24.9968 0.000341032 0.0577588 25.002 0.000395406 0.0627829 25.005 0.000251201
0.0421699 25.0089 0.000290171 0.0444579 25.0069 0.000453462 0.0665213 25.0114 0.00055115 0.0690232
25.0123 0.000339264 0.045765 25.0153 0.000428554 0.0468142 25.0154 0.000681384 0.0706865 25.0211
0.00039174 0.0296106 25.0183 0.000825722 0.0709228 25.0175 0.000472617 0.0455418 25.0174 0.000302156
0.0308285 25.0241 0.000545416 0.0291196 25.026 0.000675069 0.0279654 25.027 0.000774738 0.0265267
25.0275 0.000847535 0.0251667 25.0279 0.000902596 0.024105 25.0283 0.000943089 0.0234497 25.0286
0.000976763 0.023133 25.0289 0.00100079 0.0230307 25 3.29513e-14 2.94439e-12 24.9999 6.90108e-06
0.000618139 24.9997 1.47513e-05 0.00155045 24.9974 3.37874e-05 0.00481594 24.9979 2.54927e-05 0.00320416
24.9997 2.44472e-05 0.00317168 24.9964 5.76569e-05 0.00981045 24.9964 4.58975e-05 0.00717929 25.0002
3.71098e-05 0.00566632 24.9972 9.07216e-05 0.0169257 24.9959 7.61035e-05 0.0136792 25.0017 5.25994e-05
0.00878445 25.0009 0.00012874 0.0240835 24.9981 0.000115111 0.021714 25.0046 7.00006e-05 0.0117665
25.0086 8.92048e-05 0.0138669 25.0034 0.000155658 0.028403 25.029 0.00048797 0.0128682 25.0292
0.000492788 0.0129263 25 0 0 25.0086 8.92048e-05 0.0138669 25.0068 0.00016833
0.0289788 25.0034 0.000155658 0.028403 25.013 0.000112498 0.0148711 25.0127 0.000222935 0.0313487
25.0098 0.000202987 0.0321945 25.0169 0.000145654 0.015072 25.0153 0.000288029 0.033513 25.0201
0.000194209 0.0148993 25.0226 0.000255557 0.0143962 25.0245 0.000318353 0.0136537 25.0258 0.000367765
0.0130676 25.0267 0.000401335 0.0127646 25.0275 0.000426025 0.0126403 25.028 0.000444693 0.0126231
25.0284 0.000462402 0.0126751 25.0287 0.000477581 0.0127608 25.029 0.00048797 0.0128682 25.0292
0.000492788 0.0129263 25 1.29559e-14 7.50441e-13 25 6.02487e-06 0.000349782 25.0002 1.25418e-05
0.000830564 25.0002 1.25418e-05 0.000830564 25.0002 1.25418e-05 0.000830564 25.0006 1.99838e-05 0.00158973
25.0015 2.90838e-05 0.00267753 25.0032 3.98174e-05 0.00398956 25.0059 5.18984e-05 0.00524822 25.0092
6.51212e-05 0.00614834 25 0 0 25.0002 1.25418e-05 0.000830564 25.0092 6.51212e-05
0.00614834 25.0129 8.0565e-05 0.0065762 25.0164 0.000100293 0.00665584 25.0193 0.000125887 0.0065181
25.0217 0.000157344 0.00621997 25.0236 0.000189532 0.00588558 25.0249 0.000216803 0.00560445 25.0259
0.000238045 0.0053707 25.0267 0.000255764 0.00515057 25.0272 0.000271021 0.00495812 25.0276 0.000284505
0.00481048 25.028 0.000295845 0.00470725 25.0285 0.000304612 0.00464479 25.0288 0.000308866 0.0046178
25 1.35529e-06 0 25.0001 5.71856e-06 0 25.0002 1.25418e-05 0.000830563 25.0003
1.17869e-05 0 25.0009 1.85778e-05 0 25.0019 2.6698e-05 0 25.0036 3.61677e-05
0 25.0062 4.68218e-05 0 25.0093 5.85495e-05 0 25 1.35529e-06 0
25.0093 5.85495e-05 0 25.0128 7.18985e-05 0 25.0161 8.83024e-05 0 25.019
0.000108418 0 25.0214 0.000132045 0 25.0232 0.000156053 0 25.0246 0.000177201
0 25.0256 0.000194272 0 25.0264 0.00020834 0 25.027 0.000219946 0
25.0275 0.000229614 0 25.0279 0.000237389 0 25.0283 0.000243005 0 25.0286
0.000245745 0.00110604 27.6335 -0.0621368 0.149413 25 0 0 25 0
0 27.6724 -0.0598727 0.138879 25 0 0 24.1254 0.187466 5.4235
24.023 0.187428 5.38025 23.7075 0.200418 5.60448 23.8484 0.198621 5.62177 24.7494
0.00381225 -0.156249 24.8368 0.00241781 -0.132966 22.9915 0.0666176 2.16544 23.0065 0.0641969
2.05404 23.1006 0.0613379 1.97505 25 0 0 24.6692 -0.0691671 0.103963
22.9802 0.0690581 2.27796 25 0 0 25 0 0 25.3826
-0.0902037 0.193355 25.3316 -0.0898608 0.18961 22.1764 0.0202221 4.99718 22.7033 0.0202984
5.27499 22.7027 0.0202966 5.27513 23.4353 -0.200285 11.2507 23.531 -0.224918 10.8064
23.5805 -0.216186 10.9052 23.4832 -0.190589 11.3381 24.8202 0.00213555 -0.0599771 24.7528
0.00309989 -0.0529763 24.8513 0.0014281 0.0396493 24.856 0.00135615 0.0342482 24.8817 0.0010404
0.019031 24.9077 0.000766518 0.0274336 24.8169 0.00315031 0.231984 24.7748 0.00416331 0.282234
24.7795 0.00359274 0.23376 24.8145 0.00285409 0.200184 24.3099 0.161727 4.86851 24.1974
0.182429 5.35259 24.3435 0.156491 4.78647 24.7752 0.00445966 0.306067 23.1333 0.058648
1.85919 23.3308 0.0525954 1.69742 24.8568 0.00141482 0.0608411 24.8347 0.00168271 0.0585083
24.7756 0.00476928 0.330651 24.8634 0.00839747 0.576369 24.8519 0.00794036 0.552793 24.8715
0.00610386 0.458592 26.4758 -0.0100032 -0.228692 26.4971 -0.0102456 -0.230158 25.5636 -0.00385827
-0.086637 22.7023 0.0227303 4.46391 23.2006 0.0231616 4.75156 22.1655 0.0202206 4.99143
21.6718 0.0201153 4.74845 24.4438 0.0127043 -1.30963 24.3513 0.0134979 -1.45314 24.5976
0.010849 -1.55242 24.6669 0.0103668 -1.36169 24.5969 0.0111249 -1.32211 23.6388 0.0171083
4.17448 23.0606 0.0159182 3.86515 24.3398 0.013998 -1.20416 24.2799 0.0146851 -1.18209
24.1412 0.0160012 -1.32365 23.7379 0.0234741 5.03305 24.2587 0.0182161 4.53438 23.4025
-0.160576 11.6971 23.3974 -0.158693 11.7196 23.3518 -0.168457 11.646 23.355 -0.169701
11.6305 26.2107 -0.00697761 -0.210484 25 0 0 25 0 0
24.4789 0.0124042 -1.25535 24.2296 0.0136218 0.0692816 24.0901 0.0170608 0.163313 23.9714
0.0198112 0.115683 24.1479 0.0156027 0.0154192 24.0218 0.129693 4.76317 23.9878 0.128216
4.73367 24.0154 0.122494 4.51683 24.0523 0.123175 4.5074 25 0 0
25.0165 9.92746e-05 -0.0121311 25.0277 0.000148024 -0.0209284 25 0 0 25.0681
9.73474e-05 -0.0256483 25.1497 0.000214018 -0.0563939 25.1599 0.000201819 -0.0610166 24.9961 0.000157475
-0.025096 24.9861 0.000180804 -0.023917 24.9754 0.000304252 -0.0349176 24.9911 0.000265328 -0.0390968
23.7026 0.192233 5.39496 22.5279 0.216969 5.76706 22.9105 0.212271 5.73871 25
0 0 24.8916 0.0015877 -0.108829 24.8757 0.00156962 -0.0836488 25 0
0 25.9759 -0.00461107 -0.18204 24.9733 0.00270674 -0.311426 25.0394 0.00228255 -0.322523
25.1077 0.00166956 -0.298493 25.0851 0.00110529 -0.200186 24.9998 0.00166851 -0.214721 24.7319
0.0097194 -1.36083 24.8976 0.0080696 -1.35866 24.9456 0.00709355 -1.01663 24.6605 0.0100187
-0.956596 25 0 0 24.8411 -0.0692569 0.783804 23.0676 -0.0328402 10.2096
23.0839 -0.0349929 10.7875 23.1773 0.135732 9.32724 24.2752 0.0147456 -1.17615 23.3099
-0.178671 11.5739 23.3121 -0.179475 11.5634 24.9246 0.00211374 -0.202553 24.8608 0.00346932
-0.280101 24.906 0.00327177 -0.310059 24.299 0.0121934 -0.049906 24.3529 0.0107904 0.00504637
24.1651 0.0161499 -1.03842 24.4325 0.0125056 -0.8261 25.2834 -0.0894688 0.185842 25
0 0 23.6723 -0.313958 7.63836 23.781 -0.298127 7.15244 23.7501 -0.301992
7.24597 23.6347 -0.318314 7.7521 23.3923 -0.210016 11.1643 23.4872 -0.233555 10.7082
23.5094 -0.333699 8.28987 23.5439 -0.330447 8.18306 24.0787 0.126258 4.57251 24.0538
0.131541 4.79123 20.1384 0.0909091 3.843 20.0598 0.0938234 4.12953 19.7611 0.0907986
4.2145 19.85 0.0880568 3.91549 25.7425 -0.0969629 13.3277 26.1217 -0.0951975 13.4732
26.0281 -0.0819486 14.0844 25.5912 -0.0820947 13.8714 20.8691 0.142442 9.09962 21.154
0.146168 9.33333 20.9586 0.142857 9.93729 20.5879 0.138428 9.65073 24.1087 0.109778
4.03377 23.9857 0.120208 4.4475 24.0485 0.107229 3.97632 20.4184 0.0930063 3.7585
20.3491 0.0960604 4.03117 23.3004 0.10287 3.88753 23.2973 0.103082 3.89576 23.2513
0.101033 3.80702 23.3244 0.0963573 3.62443 23.3263 0.0963938 3.62617 21.362 0.149303
8.80231 21.1252 0.145775 8.58746 23.3795 0.0974425 3.67613 26.6285 -0.1544 4.78575
26.7593 -0.152633 4.78952 26.6143 -0.160174 5.14079 25.1169 -0.16514 4.0572 25.0506
-0.174951 4.40464 24.9964 -0.174418 4.3328 25.0629 -0.164562 3.99153 26.592 -0.161617
5.21125 26.4582 -0.163426 5.19698 26.4831 -0.156171 4.77251 24.5354 0.011091 0.561802
24.4633 0.0133519 0.643948 24.4711 0.0120623 0.565968 24.5315 0.0103709 0.508089 24.6328
0.00565057 0.219342 24.6302 0.00571749 0.223312 24.5276 0.00773464 0.25691 24.5402 0.00737765
0.233751 24.5243 0.0124553 0.639691 24.4622 0.0146613 0.722476 24.6427 0.0187809 1.01075
24.5989 0.0231629 1.18266 24.5715 0.0221023 1.13391 24.6135 0.0184929 0.991929 24.3071
0.0118321 0.108924 24.1969 0.0146219 0.19482 24.6804 0.00439901 0.145641 24.558 0.00686562
0.200947 24.6043 0.00578971 0.151993 29.5733 -0.105571 3.58913 29.3312 -0.102204 3.25496
29.4616 -0.0978122 3.0211 29.7246 -0.100963 3.33224 19.1538 0.0138222 -5.22345 19.225
0.0161967 -4.49514 18.5417 0.0165107 -4.34542 18.2877 0.0142028 -5.1245 28.4443 -0.0308805
-0.992488 28.7339 -0.0304662 -1.40734 29.3591 -0.0383442 -1.00678 28.9152 -0.0380895 -0.659282
25.9477 -0.00208948 -1.42647 25.9872 -0.00248524 -1.45192 26.0262 -0.00292005 -1.42264 19.8625
0.0159813 -4.50457 19.92 0.0135267 -5.16833 27.9641 -0.024599 -1.19644 28.1098 -0.0237049
-1.62367 20.2185 0.0880238 3.57157 19.9408 0.0853891 3.63167 19.3249 0.0183803 -3.9079
18.7577 0.018656 -3.72438 19.8605 0.0181461 -3.98304 29.1845 -0.106499 3.47119 29.406
-0.110055 3.82453 25.9061 -0.112879 12.7872 26.2554 -0.110128 12.8939 26.6114 -0.161353
5.21332 26.7797 -0.152357 4.79011 26.7716 -0.159043 5.22022 25.4117 -0.0993678 13.1655
25.588 -0.116284 12.6565 17.134 0.0501127 3.9367 17.5111 0.0543365 3.95369 17.3685
0.0567168 4.30165 17.0279 0.0528616 4.27478 17.0593 0.0511231 4.11404 28.944 -0.100544
13.387 28.8787 -0.100597 13.275 28.0124 -0.0978189 13.1554 28.4188 -0.0974077 13.425
15.8485 0.0818362 6.87919 15.6109 0.0805444 6.76038 15.8172 0.0784064 6.5807 16.0284
0.0797726 6.67471 25.2209 -0.0829901 13.6526 19.672 0.193614 8.74107 19.6979 0.192473
8.78617 19.8569 0.178439 9.25468 19.6438 0.178414 9.13114 21.4811 0.150373 9.56
21.2663 0.14729 10.1385 25.9321 -0.0027166 -0.89005 25.6848 0.000246597 -1.14247 25.7823
-0.000432112 -1.31989 26.1905 -0.00474912 -1.29946 26.2756 -0.00592453 -1.09976 22.1083 0.0538239
0.550996 21.8272 0.0590093 0.822064 21.5182 0.0580069 0.710546 21.8482 0.0534555 0.415829
23.596 0.0268718 -0.272407 23.5217 0.0267409 -0.54623 23.9214 0.020194 -0.532848 23.9343
0.020209 -0.333994 22.1787 0.0487704 0.173272 22.3906 0.0487708 0.325855 19.3445 0.112858
6.72064 19.7487 0.117004 6.49913 19.7877 0.120696 6.89456 19.3656 0.116433 7.15519
17.7317 0.0803133 13.8811 18.3778 0.0917818 15.0578 18.6875 0.110236 15.6733 18.1244
0.102392 14.4178 15.6415 0.0839194 7.09782 16.0765 0.0833007 6.97878 15.8801 0.0853626
7.21524 20.4895 0.090024 3.49951 23.5947 0.0319379 0.692245 23.5129 0.0352469 0.822585
23.3654 0.0387212 0.860052 23.4608 0.0350817 0.715077 22.3572 0.0529595 0.645714 22.1161
0.0582039 0.89692 29.1411 -0.103084 13.2452 29.2286 -0.103859 13.2029 31.8124 -0.114021
6.83499 32.2015 -0.112169 7.4844 31.7406 -0.116026 7.84636 31.4011 -0.118214 7.19467
28.8287 -0.14406 9.1993 28.7403 -0.148235 8.58791 29.0845 -0.143851 8.48083 29.1965
-0.139845 9.09885 23.4102 0.10017 3.78658 23.4111 0.100247 3.78971 23.345 0.105074
3.98028 19.8985 0.206876 8.44244 20.0269 0.208638 8.46005 21.6109 0.152908 8.98608
28.9091 -0.100344 13.482 28.5943 -0.0971717 13.6123 17.671 0.0590603 13.5469 18.1066
0.0685658 14.3779 15.3741 0.0827359 6.93867 19.2203 -0.118083 9.11128 19.2203 -0.118083
9.11128 22.624 -0.118462 10.7335 24.397 -0.113677 11.3484 23.6594 -0.117193 10.9275
31.2132 0.0407108 14.3761 30.751 0.0443681 14.8912 29.865 0.0413764 14.2939 30.7507
0.0400302 14.0823 17.3689 0.0716529 13.0809 17.5975 0.0921891 13.3508 20.8416 0.190544
9.1497 20.0644 0.188084 9.30867 20.1923 0.184844 9.37042 21.1019 0.184169 9.27393
22.4515 0.0370477 12.8629 21.9564 0.0351194 12.8152 20.521 0.0589691 11.9287 21.3702
0.0563574 12.2183 19.2203 -0.118083 9.11127 17.9271 0.130438 10.4955 16.8529 0.139639
9.90512 15.3265 0.144379 9.70056 15.4563 0.134238 9.63303 17.8778 0.112144 9.87533
18.0422 0.113818 10.3216 17.5621 0.111147 10.5981 17.408 0.10974 10.0737 25
0 0 25 0 0 26.5303 -0.0866148 0.228844 26.4445 -0.0875182
0.228571 26.6385 -0.147327 4.37835 26.768 -0.145686 4.38036 25.3739 -0.00434448 -0.00766419
25.9556 -0.0119758 -0.00623153 25 0 0 25 0 0 29.1196
-0.0986988 2.94911 29.2323 -0.094527 2.73659 28.2022 -0.0308311 -0.692435 28.5642 -0.0373839
-0.418935 28.9913 -0.102784 3.14697 26.7821 -0.145506 4.38058 27.4433 -0.0283922 -0.0500864
27.5772 -0.0322964 -0.0168051 25.0486 -0.000522961 -0.00165937 25 0 0 26.4106
-0.00808292 -0.757542 26.4123 -0.00811007 -0.753232 26.0823 -0.00468882 -0.650077 26.0818 -0.00468273
-0.650817 27.8257 -0.0250499 -0.874899 17.6722 0.0523941 3.57855 17.157 0.048626 3.73435
17.264 0.0478728 3.5172 16.8769 0.0208754 1.25076 16.8928 0.0212271 1.06282 17.0517
0.0217883 1.04837 17.0358 0.021506 1.22129 18.8573 0.0439396 1.35092 19.1225 0.0480648
1.45545 18.924 0.0481277 1.70913 18.6574 0.0436814 1.59987 18.9543 -0.119173 8.87675
23.151 -0.120006 10.6129 27.2848 -0.0246099 -0.0780743 23.5599 0.031747 0.585168 23.6792
0.0289791 0.575533 23.9885 0.0192106 -0.1774 23.7138 0.025227 -0.0893249 22.5979 0.0478749
0.431582 18.9543 -0.119173 8.87675 17.8832 0.0592851 3.99053 17.7324 0.0614315 4.33645
19.7438 0.113439 6.1198 19.3616 0.109491 6.30607 16.2406 0.0812254 6.75822 20.1389
0.131506 8.10944 20.3465 0.135063 8.48133 19.9692 0.130689 8.96339 19.7274 0.127071
8.53658 18.7967 0.134901 10.5701 19.5063 0.129372 11.0731 18.2726 0.114494 9.66545
18.431 0.11628 10.0361 20.1189 0.120135 6.26002 20.1672 0.123927 6.62141 22.442
0.137713 5.73245 22.5384 0.140687 5.87246 22.4023 0.145049 6.22447 22.2947 0.141964
6.07511 21.7716 0.118164 4.74697 21.973 0.115367 4.50589 22.0119 0.118674 4.69873
21.8145 0.121741 4.95658 29.0062 -0.102074 13.2779 26.4242 -0.18657 8.79266 26.6686
-0.181454 8.82874 26.6358 -0.177522 9.40933 26.3776 -0.182986 9.36745 28.4065 -0.152655
8.68161 28.4743 -0.148352 9.28719 17.5784 0.0533285 13.0731 23.8949 -0.107067 12.3957
24.0304 -0.132691 12.0517 24.1561 -0.126205 12.1853 24.0088 -0.101979 12.533 22.9712
0.021993 13.1326 22.7726 0.0190361 13.2375 17.3747 0.0918611 7.21747 17.9066 0.0969395
7.17996 17.8004 0.10035 7.73749 17.48 0.0981624 7.83223 17.17 0.0958627 7.79244
17.2224 0.0934511 7.49699 17.7695 0.110215 9.4415 17.326 0.107977 9.58685 25.7327
-0.110677 11.6712 26.4678 -0.106577 12.081 29.0321 -0.125425 11.1177 29.4397 -0.123095
11.0516 29.4513 -0.115821 11.6874 29.0347 -0.117436 11.7496 30.8703 -0.115481 10.7454
30.9507 -0.112195 11.1323 30.6611 -0.113567 11.1828 30.6165 -0.116578 10.8648 23.8655
-0.0393079 15.0322 23.6223 -0.0379674 15.0843 21.513 -0.0140147 14.6591 22.0792 -0.0188528
14.6887 22.5256 -0.0181581 14.115 22.5948 0.00653223 14.6296 21.948 -0.00373835 14.4242
22.4535 -0.0232088 14.302 26.5631 -0.0984187 12.5491 27.794 -0.0988272 12.9204 27.5
-0.0987883 12.9081 25.845 -0.0998817 12.4146 31.4388 0.0192648 9.62405 31.381 0.0203722