# vtk DataFile Version 2.0
sampleSurface
ASCII
DATASET POLYDATA
POINTS 8354 float
1.75549e-13 0 0 1.75549e-13 0 0.01875 0.0625 0 0 -0.0625 0
0 0.0625 -5.11491e-18 0.01875 -0.0625 5.48644e-18 0.01875 1.59532e-13 -2.52877e-18 0.0806582
0.0625 0 0.0806582 -0.0625 -1.26218e-29 0.0806582 0.125 0 0 -0.125
-1.26218e-29 0 0.125 0 0.01875 -0.125 -1.26218e-29 0.01875 1.50652e-13 0
0.142566 0.125 5.1813e-18 0.0806582 -0.125 5.65082e-18 0.0806602 0.0625 1.64721e-18 0.142566
-0.0625 2.03723e-18 0.142566 0.1875 1.26218e-29 0 -0.1875 0 0 0.1875
-4.46051e-18 0.01875 -0.1875 7.89923e-20 0.01875 0.125 1.26218e-29 0.142566 -0.125 0
0.14257 0.1875 -1.26218e-29 0.0806582 -0.1875 0 0.0806602 1.48836e-13 0 0.204475
0.0625 0 0.204475 -0.0625 0 0.204475 0.1875 -4.98715e-18 0.142566 -0.1875
-1.7597e-18 0.14257 0.125 0 0.204475 -0.125 -6.71663e-18 0.204481 0.25 1.26218e-29
0 -0.25 -1.26218e-29 0 0.25 1.26218e-29 0.01875 -0.25 -1.26218e-29 0.01875
0.25 1.26218e-29 0.0806582 -0.25 4.00211e-18 0.0806627 1.54191e-13 0 0.266383 0.0625
4.23976e-18 0.266383 -0.0625 0 0.266383 0.1875 0 0.204475 -0.1875 0
0.204481 0.25 0 0.142566 -0.25 0 0.142575 0.125 0 0.266383
-0.125 1.26218e-29 0.266391 0.3125 0 0 -0.3125 -1.26218e-29 0 0.3125
3.86026e-18 0.01875 -0.3125 4.27294e-18 0.01875 0.3125 0 0.0806582 -0.3125 -1.26218e-29
0.080663 0.25 1.03525e-18 0.204475 -0.25 1.26218e-29 0.204488 0.1875 0 0.266383
-0.1875 1.37701e-18 0.266391 1.66949e-13 4.90093e-18 0.328291 -0.0625 -1.26218e-29 0.328291 0.0625
0 0.328291 0.3125 0 0.142566 -0.3125 4.27624e-18 0.142576 0.125 6.22153e-19
0.328291 -0.125 -2.07532e-18 0.328301 0.25 0 0.266383 -0.25 0 0.266401
0.3125 0 0.204475 -0.3125 1.26218e-29 0.204489 0.375 0 0 -0.375
-2.52435e-29 0 0.375 0 0.01875 -0.375 -2.52435e-29 0.01875 0.1875 0
0.328291 -0.1875 0 0.328301 0.375 6.81186e-18 0.0806582 -0.375 6.54521e-18 0.0806641
1.87544e-13 1.26218e-29 0.390199 0.0625 2.51913e-18 0.390199 -0.0625 9.79971e-20 0.390199 0.375
0 0.142566 -0.375 0 0.142578 0.125 1.26218e-29 0.390199 -0.125 0
0.390211 0.3125 3.38175e-18 0.266383 -0.3125 -1.26218e-29 0.266402 0.25 0 0.328291
-0.25 2.36409e-18 0.328314 0.375 -2.14407e-18 0.204475 -0.375 1.89573e-18 0.204492 0.1875
0 0.390199 -0.1875 -3.51018e-18 0.390211 -0.4375 -2.52435e-29 0 0.4375 4.33579e-18
0 -0.4375 5.39157e-18 0.01875 0.4375 4.33579e-18 0.01875 0.4375 0 0.0806588
-0.4375 0 0.0806641 2.16727e-13 0 0.452107 0.3125 0 0.328291 -0.3125
0 0.328315 0.0625 1.26218e-29 0.452107 -0.0625 0 0.452107 0.375 1.26218e-29
0.266383 -0.375 0 0.266406 0.4375 0 0.142568 -0.4375 -2.52658e-18 0.142578
0.25 0 0.390199 -0.25 0 0.390226 0.125 -3.39343e-18 0.452107 -0.125
-8.79568e-19 0.452121 0.4375 1.26218e-29 0.204477 -0.4375 -2.52435e-29 0.204492 0.1875 0
0.452107 -0.1875 0 0.452121 0.375 0 0.328291 -0.375 2.48192e-18 0.32832
0.3125 -4.01722e-18 0.390199 -0.3125 -2.95176e-18 0.390228 -0.5 0 0 0.5
-1.26218e-29 0 -0.5 0 0.01875 0.5 -1.26218e-29 0.01875 0.5 1.26218e-29
0.0806588 -0.5 0 0.0806641 0.4375 0 0.266385 -0.4375 -4.42667e-18 0.266406
2.55734e-13 0 0.514016 0.25 2.76043e-18 0.452107 -0.25 0 0.452139 0.0625
4.63172e-18 0.514016 -0.0625 0 0.514016 0.5 0 0.142568 -0.5 5.04871e-29
0.142578 0.125 0 0.514016 -0.125 0 0.514031 0.5 -4.53491e-18 0.204477
-0.5 -3.71825e-18 0.204492 0.375 -1.26218e-29 0.390199 -0.375 0 0.390234 0.4375
0 0.328294 -0.4375 -2.52435e-29 0.32832 0.1875 -2.52435e-29 0.514016 -0.1875 3.73614e-18
0.514031 0.3125 1.26218e-29 0.452107 -0.3125 0 0.452142 -0.5625 1.00974e-28 0
0.5625 1.26218e-29 0 -0.5625 -3.62689e-18 0.01875 0.5625 -4.16584e-18 0.01875 0.5
1.26218e-29 0.266385 -0.5 0 0.266406 0.5625 1.26218e-29 0.0806588 -0.5625 1.00974e-28
0.0806641 0.25 0 0.514016 -0.25 2.52435e-29 0.514052 3.06549e-13 0 0.575924
-0.0625 0 0.575924 0.0625 0 0.575924 0.5625 -3.21432e-18 0.142568 -0.5625
-4.40015e-18 0.142578 0.4375 3.7915e-18 0.390203 -0.4375 1.7368e-18 0.390234 0.375 7.24633e-19
0.452107 -0.375 -1.3287e-18 0.452148 0.125 -2.45194e-18 0.575924 -0.125 -6.0933e-18 0.575942
0.5 0 0.328294 -0.5 0 0.32832 0.5625 0 0.204477 -0.5625
0 0.204492 0.3125 6.76102e-18 0.514016 -0.3125 0 0.514055 0.1875 0
0.575924 -0.1875 0 0.575942 0.5625 -1.3001e-18 0.266385 -0.5625 0 0.266406
-0.625 0 0 0.625 1.26218e-29 0 -0.625 0 0.01875 0.625
1.26218e-29 0.01875 0.25 0 0.575924 -0.25 -2.90766e-18 0.575945 0.4375 -1.26218e-29
0.452112 -0.4375 0 0.452148 0.625 -4.21414e-18 0.0806588 -0.625 4.80757e-18 0.0806641
0.5 -1.26218e-29 0.390203 -0.5 0 0.390234 0.375 -1.26218e-29 0.514016 -0.375
2.52435e-29 0.514063 3.72107e-13 0 0.637832 -0.0625 4.88286e-18 0.637832 0.0625 6.77044e-18
0.637832 0.625 -6.31089e-30 0.142568 -0.625 0 0.142578 0.125 0 0.637832
-0.125 0 0.637852 0.5625 0 0.328294 -0.5625 0 0.32832 0.3125
0 0.575924 -0.3125 -2.52435e-29 0.575968 0.625 3.12974e-18 0.204477 -0.625 4.59612e-18
0.204492 0.1875 2.19058e-18 0.637832 -0.1875 -6.60238e-18 0.637852 0.5 4.92156e-18 0.452112
-0.5 -1.68639e-18 0.452148 0.4375 -1.26218e-29 0.514021 -0.4375 -5.65702e-18 0.514063 0.625
0 0.266385 -0.625 -2.01948e-28 0.266406 0.5625 9.44275e-19 0.390203 -0.5625 -6.46756e-18
0.390234 0.25 0 0.637832 -0.25 0 0.637856 0.375 -6.73569e-18 0.575924
-0.375 1.11066e-18 0.575977 0.6875 0 0 -0.6875 0 0 -0.6875
1.40717e-18 0.01875 0.6875 -3.97897e-18 0.01875 0.6875 0 0.0806588 -0.6875 0
0.0806641 4.56845e-13 3.87603e-18 0.69974 0.6875 1.27263e-18 0.142568 -0.6875 0 0.142578
-0.0625 2.52435e-29 0.69974 0.0625 2.52435e-29 0.69974 0.625 6.592e-18 0.328294 -0.625
0 0.32832 0.3125 -1.93524e-18 0.637832 -0.3125 4.04014e-18 0.637881 0.125 -4.70106e-19
0.69974 -0.125 3.12226e-18 0.699762 0.5 0 0.514021 -0.5 0 0.514063
0.6875 6.31089e-30 0.204477 -0.6875 -4.03897e-28 0.204492 0.5625 0 0.452112 -0.5625
-1.00974e-28 0.452148 0.4375 0 0.57593 -0.4375 0 0.575977 0.1875 -2.52435e-29
0.69974 -0.1875 2.52435e-29 0.699762 0.625 1.26218e-29 0.390203 -0.625 2.01948e-28 0.390234
0.6875 0 0.266385 -0.6875 -6.75978e-18 0.266406 0.375 0 0.637832 -0.375
0 0.637891 0.25 4.98213e-18 0.69974 -0.25 0 0.699767 0.75 1.26218e-29
0 -0.75 8.07794e-28 0 0.75 1.26218e-29 0.01875 -0.75 8.07794e-28 0.01875
0.75 -2.83834e-18 0.080661 -0.75 0 0.0806644 5.67701e-13 0 0.761648 0.6875
0 0.328294 -0.6875 0 0.32832 0.5625 -5.39072e-18 0.514021 -0.5625 0
0.514063 0.5 0 0.57593 -0.5 0 0.575977 0.75 0 0.142572
-0.75 8.07794e-28 0.142579 -0.0625 4.99955e-18 0.761648 0.0625 -5.04871e-29 0.761648 0.3125
2.52435e-29 0.69974 -0.3125 0 0.699795 0.625 -1.02629e-18 0.452112 -0.625 -1.62107e-19
0.452148 0.125 0 0.761648 -0.125 0 0.761672 0.4375 0 0.637838
-0.4375 4.29373e-19 0.637891 0.75 -6.31089e-30 0.204483 -0.75 -1.94537e-18 0.204493 0.1875
5.59539e-18 0.761648 -0.1875 0 0.761672 0.6875 -3.12847e-21 0.390203 -0.6875 1.7397e-18
0.390234 0.375 -7.78862e-19 0.69974 -0.375 9.53408e-20 0.699805 0.75 6.31089e-30 0.266394
-0.75 8.07794e-28 0.266408 0.25 0 0.761648 -0.25 0 0.761678 0.5625
0 0.57593 -0.5625 0 0.575977 0.625 1.26218e-29 0.514021 -0.625 0
0.514063 0.5 2.52435e-29 0.637838 -0.5 1.00974e-28 0.637891 -0.8125 0 0
0.8125 6.31089e-30 0 -0.8125 9.96706e-19 0.01875 0.8125 -5.64787e-18 0.01875 0.8125
0 0.0806623 -0.8125 -1.61559e-27 0.0806652 0.75 6.84495e-18 0.328305 -0.75 -8.07794e-28
0.328322 0.6875 -1.26218e-29 0.452112 -0.6875 0 0.452148 0.3125 0 0.761648
-0.3125 1.35227e-18 0.761708 7.16809e-13 0 0.823557 0.8125 2.44843e-18 0.142575 -0.8125
-5.09802e-18 0.142581 0.4375 0 0.699747 -0.4375 -5.04871e-29 0.699805 -0.0625 0
0.823557 0.0625 5.04871e-29 0.823557 0.125 3.3729e-18 0.823557 -0.125 -3.3446e-19 0.823582
0.8125 -6.31089e-30 0.204487 -0.8125 -1.61559e-27 0.204496 0.1875 0 0.823557 -0.1875
0 0.823582 0.75 0 0.390216 -0.75 8.07794e-28 0.390236 0.375 0
0.761648 -0.375 0 0.761719 0.625 2.89935e-18 0.57593 -0.625 2.69604e-18 0.575977
0.5625 3.66498e-18 0.637838 -0.5625 -1.66883e-18 0.637891 0.8125 -3.92683e-18 0.266399 -0.8125
0 0.266411 0.6875 1.26218e-29 0.514021 -0.6875 6.04692e-18 0.514063 0.5 3.95879e-18
0.699747 -0.5 6.89573e-18 0.699805 0.25 0 0.823557 -0.25 -5.33342e-18 0.823589
-0.875 0 0 0.875 6.31089e-30 0 -0.875 0 0.01875 0.875
6.31089e-30 0.01875 0.75 0 0.452127 -0.75 2.01392e-18 0.452151 0.8125 0
0.328312 -0.8125 -1.61559e-27 0.328327 0.4375 -1.09521e-18 0.761656 -0.4375 0 0.761719
0.875 -1.5406e-18 0.0806623 -0.875 -3.26522e-18 0.0806667 0.3125 5.04871e-29 0.823557 -0.3125
0 0.823622 9.26509e-13 5.04871e-29 0.885465 0.875 0 0.142575 -0.875 -3.23117e-27
0.142584 -0.0625 4.92932e-18 0.885465 0.0625 -6.03858e-18 0.885465 0.625 0 0.637838
-0.625 2.01948e-28 0.637891 0.125 -5.04871e-29 0.885465 -0.125 0 0.885492 0.6875
0 0.57593 -0.6875 0 0.575977 0.5625 -2.52435e-29 0.699747 -0.5625 0
0.699805 0.875 -6.36353e-18 0.204487 -0.875 0 0.204501 0.8125 2.30477e-18 0.390224
-0.8125 0 0.390243 0.375 3.82565e-19 0.823557 -0.375 1.65848e-18 0.823633 0.1875
-3.72016e-18 0.885465 -0.1875 7.34014e-19 0.885492 0.75 1.26218e-29 0.514038 -0.75 8.07794e-28
0.514066 0.5 0 0.761656 -0.5 0 0.761719 0.875 6.31089e-30 0.266399
-0.875 3.23117e-27 0.266418 0.25 -5.04871e-29 0.885465 -0.25 -5.04871e-29 0.8855 0.8125
0 0.452136 -0.8125 0 0.452159 0.4375 -5.04871e-29 0.823565 -0.4375 0
0.823633 0.875 -5.88015e-18 0.328312 -0.875 -6.83729e-18 0.328335 -0.9375 0 0
0.9375 -6.31089e-30 0 -0.9375 2.78604e-18 0.01875 0.9375 6.36076e-18 0.01875 0.6875
9.03089e-19 0.637838 -0.6875 6.40813e-18 0.637891 0.625 -2.58188e-18 0.699747 -0.625 2.61625e-18
0.699805 0.3125 6.49955e-19 0.885465 -0.3125 -4.36459e-18 0.885535 0.9375 -6.31089e-30 0.0806623
-0.9375 0 0.0806687 0.75 3.51659e-18 0.575949 -0.75 8.07794e-28 0.57598 0.5625
-2.52435e-29 0.761656 -0.5625 -1.43321e-18 0.761719 1.24031e-12 6.80881e-18 0.947373 0.9375 -6.07622e-18
0.142575 -0.9375 6.30495e-18 0.142588 -0.0625 0 0.947373 0.0625 0 0.947373
0.125 4.7731e-18 0.947373 -0.125 6.54495e-19 0.947403 0.875 0 0.390224 -0.875
0 0.390253 0.9375 0 0.204487 -0.9375 6.46235e-27 0.204507 0.8125 4.92265e-18
0.514049 -0.8125 0 0.514075 0.375 5.04871e-29 0.885465 -0.375 0 0.885547
0.5 0 0.823565 -0.5 0 0.823633 0.1875 0 0.947373 -0.1875
[...]
POINT_DATA 8354
FIELD attributes 1
U 3 8354 float
30 0 0 30.006 -1.6476e-06 -7.74476e-05 30 0 0 30 0
0 30.0061 -1.67696e-06 -7.2812e-05 30.0059 -1.61814e-06 -8.18943e-05 30.0063 -1.73078e-06 -0.000199601
30.0064 -1.76068e-06 -0.000186857 30.0062 -1.70072e-06 -0.000211617 30 0 0 30
0 0 30.0062 -1.70616e-06 -6.80054e-05 30.0058 -1.58855e-06 -8.61146e-05 30.0064 -1.76312e-06
-0.000354882 30.0065 -1.79058e-06 -0.000173487 30.0061 -1.67051e-06 -0.000222881 30.0065 -1.79322e-06 -0.000332692
30.0063 -1.73285e-06 -0.000375882 30 0 0 30 0 0 30.0062
-1.7351e-06 -6.30488e-05 30.0057 -1.559e-06 -9.00848e-05 30.0065 -1.82333e-06 -0.000309481 30.0061 -1.7024e-06
-0.000395607 30.0065 -1.82033e-06 -0.000159724 30.006 -1.64037e-06 -0.000233368 30.0064 -1.78194e-06 -0.000521487
30.0065 -1.81215e-06 -0.000489819 30.0063 -1.75158e-06 -0.000551516 30.0066 -1.85336e-06 -0.000285524 30.006
-1.672e-06 -0.000413976 30.0066 -1.84233e-06 -0.000456737 30.0062 -1.72105e-06 -0.000579775 30 0
0 30 0 0 30.0063 -1.76393e-06 -5.80096e-05 30.0055 -1.52922e-06 -9.37917e-05
30.0066 -1.84995e-06 -0.000145736 30.0058 -1.61006e-06 -0.000243029 30.0065 -1.7874e-06 -0.000687102 30.0066
-1.81793e-06 -0.000645702 30.0063 -1.75671e-06 -0.000726359 30.0067 -1.87246e-06 -0.000422437 30.0061 -1.6906e-06
-0.000606095 30.0067 -1.88325e-06 -0.000261012 30.0059 -1.64146e-06 -0.000430912 30.0066 -1.8484e-06 -0.00060241
30.0062 -1.72588e-06 -0.000763304 30 0 0 30 0 0 30.0064
-1.79275e-06 -5.29022e-05 30.0054 -1.49928e-06 -9.72229e-05 30.0067 -1.87941e-06 -0.000131502 30.0057 -1.5796e-06
-0.000251847 30.0068 -1.90241e-06 -0.000387169 30.006 -1.65999e-06 -0.000630383 30.0067 -1.87883e-06 -0.000557467
30.0061 -1.69512e-06 -0.00079771 30.0065 -1.78892e-06 -0.000862995 30.0064 -1.75788e-06 -0.000911766 30.0066
-1.8198e-06 -0.000811553 30.0068 -1.91291e-06 -0.000235986 30.0058 -1.6108e-06 -0.000446359 30.0067 -1.85063e-06
-0.000757718 30.0062 -1.72668e-06 -0.000957634 30.0068 -1.90907e-06 -0.000511168 30.006 -1.66422e-06 -0.00082946
30.0068 -1.93217e-06 -0.000351075 30.0058 -1.62924e-06 -0.000652527 30 0 0 30
0 0 30.0064 -1.8215e-06 -4.76891e-05 30.0053 -1.46946e-06 -0.000100367 30.0067 -1.88139e-06
-0.000701818 30.0061 -1.69553e-06 -0.00100034 30.0067 -1.90882e-06 -0.000116924 30.0056 -1.54926e-06 -0.000259797
30.0065 -1.79585e-06 -0.00103946 30.0066 -1.82713e-06 -0.000977606 30.0064 -1.76443e-06 -0.00109808 30.0068
-1.94249e-06 -0.000210469 30.0056 -1.58023e-06 -0.000460264 30.0067 -1.85835e-06 -0.000912859 30.0063 -1.73283e-06
-0.00115319 30.0069 -1.93912e-06 -0.000463759 30.0058 -1.63317e-06 -0.000858408 30.0068 -1.91199e-06 -0.000644176
30.006 -1.66426e-06 -0.00103972 30.0069 -1.96182e-06 -0.000314403 30.0057 -1.59858e-06 -0.000672447 30.0068
-1.8895e-06 -0.0008456 30.0061 -1.70126e-06 -0.00120448 30 0 0 30 0
0 30.0052 -1.43966e-06 -0.000103203 30.0064 -1.85005e-06 -4.2404e-05 30.0068 -1.93798e-06 -0.000102165
30.0054 -1.51901e-06 -0.000266864 30.0066 -1.80846e-06 -0.00122812 30.0069 -1.94237e-06 -0.000585169 30.0058
-1.63287e-06 -0.00107563 30.0067 -1.8403e-06 -0.00115527 30.0065 -1.77647e-06 -0.00129713 30.0069 -1.96906e-06
-0.000415559 30.0057 -1.6022e-06 -0.000884465 30.0069 -1.97186e-06 -0.000184686 30.0055 -1.54978e-06 -0.000472581
30.0069 -1.92049e-06 -0.000776227 30.006 -1.66959e-06 -0.00125175 30.0068 -1.87208e-06 -0.00107897 30.0064
-1.7443e-06 -0.00136196 30.0069 -1.99137e-06 -0.000277274 30.0055 -1.56804e-06 -0.000690044 30.0069 -1.90377e-06
-0.000999674 30.0062 -1.71214e-06 -0.00142225 30.0069 -1.97265e-06 -0.000525138 30.0057 -1.60155e-06 -0.00110794
30.0069 -1.95127e-06 -0.000705182 30.0059 -1.63782e-06 -0.00129482 30 0 0 30
0 0 30.005 -1.4098e-06 -0.000105708 30.0065 -1.87846e-06 -3.70116e-05 30.0068 -1.96701e-06
-8.72167e-05 30.0053 -1.48858e-06 -0.000273019 30.007 -1.99887e-06 -0.000366811 30.0056 -1.57134e-06 -0.000907528
30.0068 -1.82676e-06 -0.00141476 30.007 -1.9353e-06 -0.000917863 30.0061 -1.6799e-06 -0.00147775 30.0069
-1.85911e-06 -0.00133045 30.0066 -1.79426e-06 -0.00149459 30.0069 -2.00093e-06 -0.000158635 30.0053 -1.51892e-06
-0.000483253 30.007 -1.89142e-06 -0.0012421 30.0065 -1.76156e-06 -0.00156954 30.007 -2.02051e-06 -0.000239979
30.0054 -1.53731e-06 -0.000705237 30.007 -1.98192e-06 -0.000632907 30.0057 -1.6061e-06 -0.00133353 30.007
-2.00275e-06 -0.000464521 30.0055 -1.57034e-06 -0.00113657 30.0071 -1.92364e-06 -0.00115026 30.0064 -1.72889e-06
-0.0016392 30.0071 -1.9666e-06 -0.000834054 30.006 -1.64753e-06 -0.00152826 30 0 0
30 0 0 30.0049 -1.3794e-06 -0.000107884 30.0065 -1.9067e-06 -3.1595e-05 30.007
-2.02836e-06 -0.000317992 30.0054 -1.54057e-06 -0.00092755 30.0068 -1.99591e-06 -7.27064e-05 30.0051 -1.45763e-06
-0.000278307 30.0071 -1.95567e-06 -0.00105547 30.0062 -1.69614e-06 -0.00170332 30.0069 -1.84493e-06 -0.00160405
30.0067 -1.81193e-06 -0.00169483 30.007 -1.8778e-06 -0.00150804 30.0069 -2.02989e-06 -0.000133109 30.0052
-1.48764e-06 -0.000492262 30.007 -2.0124e-06 -0.000559894 30.0056 -1.57451e-06 -0.00136776 30.0071 -1.99778e-06
-0.000748783 30.0058 -1.61522e-06 -0.00157357 30.0071 -1.91063e-06 -0.00140734 30.0066 -1.77873e-06 -0.00177994
30.007 -2.0326e-06 -0.000403691 30.0054 -1.539e-06 -0.0011615 30.007 -2.04942e-06 -0.000203103 30.0052
-1.50611e-06 -0.000717916 30.0072 -1.98748e-06 -0.000958333 30.0061 -1.66326e-06 -0.00176163 30.0072 -1.94337e-06
-0.00130255 30.0065 -1.74554e-06 -0.00185891 30.007 -2.05749e-06 -0.000269674 30.0053 -1.50925e-06 -0.0009445
30 0 0 30 0 0 30.0047 -1.34897e-06 -0.000109754 30.0065
-1.93466e-06 -2.64069e-05 30.0073 -1.97592e-06 -0.00119433 30.0063 -1.71229e-06 -0.00193139 30.0072 -2.0288e-06
-0.00066262 30.0056 -1.58303e-06 -0.00161353 30.0068 -2.0245e-06 -5.89369e-05 30.005 -1.42686e-06 -0.000282889
30.0071 -2.04261e-06 -0.000486609 30.0054 -1.54261e-06 -0.00139747 30.0073 -2.01916e-06 -0.000859487 30.0059
-1.63043e-06 -0.00181395 30.0069 -1.8606e-06 -0.00179643 30.0068 -1.82685e-06 -0.00189879 30.0071 -1.8942e-06
-0.00168804 30.0069 -2.05861e-06 -0.000108518 30.005 -1.45678e-06 -0.000499662 30.0072 -1.92777e-06 -0.00157425
30.0067 -1.79289e-06 -0.00199466 30.007 -2.0622e-06 -0.000343141 30.0052 -1.50717e-06 -0.0011828 30.0073
-2.00824e-06 -0.00108336 30.0062 -1.67892e-06 -0.00199721 30.007 -2.07846e-06 -0.000166601 30.0051 -1.47512e-06
-0.000727965 30.0073 -1.96122e-06 -0.00145575 30.0065 -1.75894e-06 -0.00208346 30.0072 -2.05952e-06 -0.000576114
30.0055 -1.55073e-06 -0.00164804 30.0073 -2.05065e-06 -0.000759586 30.0058 -1.59771e-06 -0.00186014 30.007
-2.0867e-06 -0.000221481 30.0051 -1.47791e-06 -0.000958402 30.0071 -2.07257e-06 -0.000413569 30.0052 -1.51026e-06
-0.00142262 30.0074 -1.99446e-06 -0.00133329 30.0064 -1.72492e-06 -0.00216481 30.0074 -2.04042e-06 -0.000970385
30.006 -1.6456e-06 -0.00205608 30 0 0 30 0 0 30.0046
-1.31915e-06 -0.000111246 30.0065 -1.96239e-06 -2.14504e-05 30.0068 -2.05319e-06 -4.55138e-05 30.0048 -1.39671e-06
-0.000286901 30.0071 -1.87844e-06 -0.0020035 30.0069 -2.08722e-06 -8.43782e-05 30.0049 -1.42641e-06 -0.000505503
30.0069 -1.84384e-06 -0.00211844 30.0072 -1.91288e-06 -0.00188168 30.0071 -2.09169e-06 -0.000283002 30.0051
-1.47552e-06 -0.00120064 30.0074 -2.02747e-06 -0.00120767 30.0062 -1.69078e-06 -0.00223853 30.0073 -1.94727e-06
-0.00175368 30.0068 -1.80903e-06 -0.00222594 30.0074 -2.08186e-06 -0.000659273 30.0056 -1.56507e-06 -0.00190015
30.007 -2.10715e-06 -0.000130751 30.0049 -1.44473e-06 -0.000735171 30.0072 -2.08998e-06 -0.000489839 30.0053
-1.51796e-06 -0.00167699 30.0074 -2.0724e-06 -0.000856162 30.0058 -1.6124e-06 -0.00210788 30.0074 -1.98153e-06
-0.00162029 30.0066 -1.77423e-06 -0.00232537 30.0071 -2.10241e-06 -0.000341106 30.0051 -1.47824e-06 -0.00144321
30.007 -2.11579e-06 -0.000173982 30.0049 -1.44728e-06 -0.000969232 30.0075 -2.06031e-06 -0.00107973 30.006
-1.65667e-06 -0.00230427 30.0075 -2.01555e-06 -0.00148236 30.0064 -1.73934e-06 -0.00241631 30 0
0 30 0 0 30.0065 -1.99017e-06 -1.66945e-05 30.0044 -1.28906e-06 -0.000112096
30.0068 -2.08183e-06 -3.22046e-05 30.0047 -1.36658e-06 -0.000290169 30.0072 -1.8994e-06 -0.0022194 30.0071
-2.12103e-06 -0.000223755 30.0049 -1.44446e-06 -0.00121524 30.0074 -2.11281e-06 -0.000559215 30.0054 -1.53199e-06
-0.00193397 30.0075 -2.10408e-06 -0.000741438 30.0057 -1.57917e-06 -0.00215262 30.0069 -2.11574e-06 -6.02324e-05
30.0047 -1.39633e-06 -0.000509591 30.0071 -1.86394e-06 -0.00234759 30.0073 -1.93471e-06 -0.00208335 30.0076
-2.04932e-06 -0.00134081 30.0063 -1.70433e-06 -0.00249853 30.0072 -2.1203e-06 -0.000404327 30.0051 -1.48535e-06
-0.00170021 30.0075 -1.96994e-06 -0.00194027 30.0069 -1.82827e-06 -0.00246733 30.0076 -2.09294e-06 -0.00095034
30.0058 -1.62267e-06 -0.00236188 30.007 -2.1356e-06 -9.55548e-05 30.0048 -1.41438e-06 -0.000739127 30.0076
-2.00504e-06 -0.00179104 30.0067 -1.79261e-06 -0.0025779 30.0071 -2.13212e-06 -0.00026974 30.0049 -1.44674e-06
-0.00145923 30.0076 -2.08291e-06 -0.00119661 30.0061 -1.66933e-06 -0.00257167 30.007 -2.14457e-06 -0.000127732
30.0048 -1.41645e-06 -0.000976884 30.0077 -2.03989e-06 -0.00163663 30.0066 -1.75689e-06 -0.00267885 30.0075
-2.13551e-06 -0.000626988 30.0055 -1.54551e-06 -0.00219039 30.0074 -2.1436e-06 -0.00046006 30.0052 -1.49892e-06
-0.00196165 30.0076 -2.12525e-06 -0.000820365 30.0057 -1.58851e-06 -0.00241134 30 0 0
30 0 0 30.0043 -1.25843e-06 -0.000112154 30.0065 -2.0184e-06 -1.20998e-05 30.0068
-2.1102e-06 -1.88366e-05 30.0045 -1.33657e-06 -0.000292602 30.007 -2.15011e-06 -0.000165954 30.0048 -1.41342e-06
-0.0012269 30.0072 -2.15049e-06 -0.00032009 30.005 -1.45335e-06 -0.00171743 30.0077 -2.07446e-06 -0.00147809
30.0064 -1.72103e-06 -0.00276993 30.0074 -1.92149e-06 -0.00245147 30.0069 -2.14399e-06 -3.60394e-05 30.0046
-1.36646e-06 -0.000511449 30.0077 -2.11628e-06 -0.00105075 30.0059 -1.63444e-06 -0.00263553 30.0072 -1.88495e-06
-0.00259381 30.0075 -1.95786e-06 -0.00230019 30.0076 -1.99415e-06 -0.00214088 30.007 -1.84822e-06 -0.00272652
30.007 -2.16391e-06 -6.09586e-05 30.0046 -1.38425e-06 -0.000738958 30.0078 -2.03031e-06 -0.00197455 30.0069
-1.81148e-06 -0.0028488 30.0071 -2.16158e-06 -0.000199997 30.0047 -1.41548e-06 -0.00147067 30.0078 -2.10886e-06
-0.00131651 30.0062 -1.68518e-06 -0.00285075 30.0075 -2.16676e-06 -0.000513566 30.0053 -1.51197e-06 -0.00222145
30.0076 -2.15729e-06 -0.000690701 30.0055 -1.55395e-06 -0.0024527 30.007 -2.1732e-06 -8.25475e-05 30.0046
-1.38578e-06 -0.000981477 30.0074 -2.17426e-06 -0.000362405 30.0051 -1.46652e-06 -0.00198324 30.0077 -2.14931e-06
-0.000904227 30.0057 -1.59952e-06 -0.00269006 30.0079 -2.0662e-06 -0.00180232 30.0067 -1.77467e-06 -0.00296014
30 0 0 30 0 0 30.0041 -1.22758e-06 -0.000112434 30.0064
-2.04664e-06 -7.52532e-06 30.0072 -2.18046e-06 -0.0002377 30.0048 -1.42136e-06 -0.00172826 30.007 -2.17901e-06
-0.000109563 30.0046 -1.38257e-06 -0.00123669 30.0079 -2.14302e-06 -0.00115305 30.006 -1.64945e-06 -0.00292113
30.0068 -2.13822e-06 -5.77617e-06 30.0044 -1.30721e-06 -0.000295743 30.0079 -2.1018e-06 -0.00162537 30.0065
-1.73774e-06 -0.00306028 30.0075 -1.94786e-06 -0.00269932 30.0069 -2.172e-06 -1.26644e-05 30.0044 -1.33706e-06
-0.000510632 30.0074 -1.9099e-06 -0.0028568 30.0077 -1.98565e-06 -0.00253168 30.0076 -2.18915e-06 -0.000562216
30.0053 -1.51963e-06 -0.00248605 30.0078 -2.02336e-06 -0.00235491 30.0072 -1.87172e-06 -0.00300337 30.0075
-2.19788e-06 -0.000401886 30.0051 -1.47907e-06 -0.00224619 30.0077 -2.18205e-06 -0.000758072 30.0055 -1.56422e-06
-0.00273525 30.0069 -2.19202e-06 -2.74577e-05 30.0045 -1.35445e-06 -0.000732651 30.0071 -2.19082e-06 -0.000132053
30.0046 -1.38444e-06 -0.0014776 30.008 -2.13721e-06 -0.00144495 30.0063 -1.70082e-06 -0.0031488 30.008
-2.06089e-06 -0.00217015 30.007 -1.83351e-06 -0.00313811 30.0074 -2.20469e-06 -0.000266898 30.0049 -1.43397e-06
-0.00199887 30.0079 -2.17683e-06 -0.000988838 30.0058 -1.61384e-06 -0.00298106 30.007 -2.20162e-06 -3.87512e-05
30.0045 -1.35533e-06 -0.000984129 30.0081 -2.09814e-06 -0.00197867 30.0068 -1.79523e-06 -0.0032605 30.0072
-2.21016e-06 -0.000157545 30.0046 -1.38963e-06 -0.00173174 30.0081 -2.17236e-06 -0.0012624 30.0061 -1.66404e-06
-0.0032255 30.007 -2.20771e-06 -5.49312e-05 30.0044 -1.35203e-06 -0.00124805 30 0 0
30 0 0 30.004 -1.19891e-06 -0.000116654 30.0064 -2.0743e-06 -3.0727e-06 30.0076
-2.22085e-06 -0.000435748 30.0051 -1.48589e-06 -0.00251162 30.0078 -2.2146e-06 -0.000613283 30.0053 -1.5291e-06
-0.00277106 30.0082 -2.1351e-06 -0.00178181 30.0066 -1.75683e-06 -0.00337022 30.0068 -2.16608e-06 6.74172e-06
30.0042 -1.27914e-06 -0.000303756 30.0075 -2.22875e-06 -0.000292665 30.0049 -1.44623e-06 -0.00226535 30.0079
-2.21032e-06 -0.00082506 30.0056 -1.57794e-06 -0.00303062 30.0078 -1.98737e-06 -0.00296938 30.0069 -2.19999e-06
9.58368e-06 30.0043 -1.30845e-06 -0.000507462 30.0076 -1.94782e-06 -0.00314356 30.008 -2.02671e-06 -0.00278368
30.0081 -2.06594e-06 -0.00258763 30.0074 -1.90804e-06 -0.00330539 30.0071 -2.21987e-06 -6.62738e-05 30.0044
-1.35379e-06 -0.00148009 30.0069 -2.22008e-06 4.64456e-06 30.0043 -1.32546e-06 -0.000717714 30.0073 -2.23483e-06
-0.000174012 30.0047 -1.40177e-06 -0.00200878 30.0082 -2.17183e-06 -0.00158101 30.0064 -1.71845e-06 -0.00346681
30.0081 -2.20714e-06 -0.00107899 30.0059 -1.62729e-06 -0.00329039 30.0082 -2.10495e-06 -0.00238252 30.0072
-1.86821e-06 -0.00345387 30.007 -2.22993e-06 3.40684e-06 30.0043 -1.32527e-06 -0.000986925 30.0084 -2.14365e-06
-0.00216977 30.007 -1.82829e-06 -0.00358838 30.0077 -2.24696e-06 -0.000470832 30.0051 -1.4946e-06 -0.00279749
30.0076 -2.25229e-06 -0.000312116 30.0049 -1.45239e-06 -0.00252983 30.0072 -2.23967e-06 -7.99955e-05 30.0045
-1.35831e-06 -0.00172448 30.0079 -2.24361e-06 -0.00066286 30.0054 -1.54214e-06 -0.00306996 30.0083 -2.20826e-06
-0.00137778 30.0062 -1.68022e-06 -0.00355008 30.007 -2.23631e-06 -2.33979e-06 30.0043 -1.32183e-06 -0.00126591
30.0075 -2.25934e-06 -0.000186522 30.0048 -1.41372e-06 -0.00228049 30.0081 -2.24158e-06 -0.000896101 30.0057
-1.59031e-06 -0.00334368 30.0085 -2.18201e-06 -0.00195091 30.0068 -1.78823e-06 -0.00370862 30 0
0 30 0 0 30.0038 -1.17857e-06 -0.000132764 30.0064 -2.10162e-06 1.20308e-06
30.0067 -2.19386e-06 1.86758e-05 30.0041 -1.2571e-06 -0.000316004 30.0081 -2.03929e-06 -0.00325548 30.0068
-2.22799e-06 3.07097e-05 30.0041 -1.27981e-06 -0.0005048 30.0083 -2.07983e-06 -0.00305045 30.0079 -1.99856e-06
-0.00344742 30.0073 -2.26477e-06 -8.42128e-05 30.0045 -1.36987e-06 -0.00201301 30.007 -2.2488e-06 -3.02328e-06
30.0043 -1.32342e-06 -0.00147799 30.0083 -2.24427e-06 -0.00117359 30.0059 -1.64194e-06 -0.00362006 30.0084
-2.1202e-06 -0.00283365 30.0077 -1.95762e-06 -0.00362532 30.0085 -2.22011e-06 -0.0017276 30.0066 -1.74816e-06
-0.00381408 30.0069 -2.2481e-06 3.52495e-05 30.0042 -1.30239e-06 -0.000700916 30.0077 -2.27905e-06 -0.000331662
30.0049 -1.46014e-06 -0.00281454 30.0079 -2.2767e-06 -0.000503359 30.0052 -1.50699e-06 -0.00309931 30.0086
-2.16038e-06 -0.00260653 30.0075 -1.91665e-06 -0.00378813 30.0076 -2.28344e-06 -0.000192055 30.0047 -1.41916e-06
-0.00254127 30.0081 -2.27579e-06 -0.000715034 30.0054 -1.55355e-06 -0.00338563 30.0069 -2.25817e-06 4.36786e-05
30.0041 -1.29708e-06 -0.000987195 30.0087 -2.20023e-06 -0.0023707 30.0073 -1.87564e-06 -0.00393518 30.0071
-2.26904e-06 -5.50095e-06 30.0043 -1.32722e-06 -0.00170076 30.0086 -2.25787e-06 -0.00150153 30.0063 -1.70821e-06
-0.00390458 30.0074 -2.28971e-06 -8.40156e-05 30.0046 -1.3816e-06 -0.00229548 30.0083 -2.27992e-06 -0.00097
30.0057 -1.60342e-06 -0.0036769 30.0069 -2.26481e-06 4.78777e-05 30.0041 -1.29762e-06 -0.00128331 30.0088
-2.23973e-06 -0.00212791 30.007 -1.83451e-06 -0.00406616 30 0 0 30.0063 -2.1287e-06
5.38356e-06 30.0067 -2.22143e-06 3.00723e-05 30.0079 -2.30952e-06 -0.00034764 30.005 -1.47169e-06 -0.00311903
30.0073 -2.29457e-06 1.93023e-06 30.0043 -1.33827e-06 -0.00201091 30.0084 -2.09017e-06 -0.00355474 30.0086
-2.29519e-06 -0.00127441 30.0061 -1.66831e-06 -0.00398014 30.0068 -2.2558e-06 5.06646e-05 30.0077 -2.31083e-06
-0.000196624 30.0047 -1.42592e-06 -0.00282168 30.0081 -2.3098e-06 -0.000537078 30.0052 -1.51742e-06 -0.00341667
30.0085 -2.13189e-06 -0.00332935 30.0082 -2.04827e-06 -0.00376524 30.007 -2.27762e-06 5.73126e-05 30.0041
-1.29526e-06 -0.00147198 30.0089 -2.27893e-06 -0.00188004 30.0068 -1.79339e-06 -0.00418061 30.0087 -2.17343e-06
-0.00309051 30.0079 -2.00618e-06 -0.00395972 30.0068 -2.27584e-06 6.42812e-05 30.0075 -2.31433e-06 -7.62555e-05
30.0045 -1.38641e-06 -0.00254694 30.0083 -2.31534e-06 -0.000768519 30.0055 -1.56521e-06 -0.00372076 30.0089
-2.21476e-06 -0.00283984 30.0077 -1.96408e-06 -0.00413708 30.0069 -2.28612e-06 8.18435e-05 30.0071 -2.29828e-06
6.55066e-05 30.0041 -1.30236e-06 -0.00167176 30.009 -2.25575e-06 -0.00257922 30.0075 -1.92197e-06 -0.00429664
30.0089 -2.31779e-06 -0.00162903 30.0065 -1.75243e-06 -0.00427834 30.0074 -2.31991e-06 1.42328e-05 30.0044
-1.34984e-06 -0.00231623 30.0086 -2.33213e-06 -0.00104801 30.0058 -1.62817e-06 -0.00404088 30.0069 -2.29303e-06
9.54236e-05 30.0078 -2.34201e-06 -0.000196682 30.0048 -1.4366e-06 -0.00312963 30.0081 -2.34352e-06 -0.000363473
30.005 -1.48135e-06 -0.00343744 30.0091 -2.29638e-06 -0.00231063 30.0072 -1.87978e-06 -0.00443799 30.0076
-2.34233e-06 -6.65336e-05 30.0045 -1.39216e-06 -0.00281664 30.0083 -2.35051e-06 -0.000570613 30.0053 -1.52767e-06
-0.00375182 30.0072 -2.32421e-06 8.39436e-05 30.0042 -1.30936e-06 -0.00200261 30 0 0
30 0 0 30.0063 -2.15558e-06 9.2996e-06 30.0036 -1.14017e-06 -0.000179449 30.009
-2.3562e-06 -0.00137684 30.0063 -1.71168e-06 -0.0043595 30.0066 -2.2488e-06 4.09247e-05 30.0069 -2.30616e-06
0.000114401 30.0086 -2.13658e-06 -0.00387339 30.0075 -2.34504e-06 3.46173e-05 30.0044 -1.35406e-06 -0.00254914
30.0067 -2.28334e-06 6.95906e-05 30.0088 -2.17983e-06 -0.0036258 30.0084 -2.09311e-06 -0.00410406 30.0092
-2.3367e-06 -0.0020362 30.0086 -2.36877e-06 -0.000824065 30.007 -1.83762e-06 -0.00456066 30.0056 -1.58826e-06
-0.00408685 30.0038 -1.22196e-06 -0.000532384 30.009 -2.22286e-06 -0.00336287 30.0081 -2.04945e-06 -0.00431649
30.0068 -2.30327e-06 9.16229e-05 30.0091 -2.26563e-06 -0.00308643 30.0079 -2.00577e-06 -0.00450961 30.0073
-2.34994e-06 0.000107668 30.0042 -1.32477e-06 -0.00233735 30.007 -2.32723e-06 0.000132647 30.009 -2.39421e-06
-0.0011255 30.006 -1.67083e-06 -0.00442441 30.0068 -2.31378e-06 0.000117738 30.008 -2.37691e-06 -0.000195349
30.0048 -1.44556e-06 -0.00344938 30.0092 -2.37664e-06 -0.00175817 30.0067 -1.79568e-06 -0.00466455 30.0038
-1.23706e-06 -0.0010008 30.0078 -2.37421e-06 -5.14277e-05 30.0046 -1.40205e-06 -0.00313178 30.0093 -2.30803e-06
-0.0027986 30.0076 -1.96206e-06 -0.00468258 30.0083 -2.38538e-06 -0.000377704 30.005 -1.49043e-06 -0.00377027
30.0076 -2.37363e-06 5.78512e-05 30.0043 -1.35877e-06 -0.00279663 30.0086 -2.40514e-06 -0.00060424 30.0054
-1.54907e-06 -0.00411803 30.0068 -2.32096e-06 0.000140093 30.0094 -2.35002e-06 -0.00250166 30.0073 -1.91824e-06
-0.00483492 30.0071 -2.35352e-06 0.000161414 30.0093 -2.41613e-06 -0.0014788 30.0064 -1.754e-06 -0.00474994
30.0074 -2.37557e-06 0.000139944 30.0042 -1.32408e-06 -0.00254962 30.009 -2.43191e-06 -0.000876996 30.0058
-1.63024e-06 -0.00447342 30 0 0 30.0062 -2.1822e-06 1.28292e-05 30.0066 -2.27589e-06
5.11708e-05 30.0069 -2.3344e-06 0.000167992 30.0038 -1.23639e-06 -0.00146369 30.0095 -2.39166e-06 -0.00219804
30.0071 -1.87444e-06 -0.0049662 30.0088 -2.18259e-06 -0.00421984 30.0066 -2.31059e-06 8.75305e-05 30.0091
-2.22748e-06 -0.00394737 30.0086 -2.13745e-06 -0.0044731 30.0093 -2.27212e-06 -0.00365749 30.0083 -2.09213e-06
-0.00470569 30.008 -2.40998e-06 -3.37781e-05 30.0046 -1.4104e-06 -0.00345611 30.0082 -2.41988e-06 -0.000191092
30.0048 -1.45364e-06 -0.00377647 30.0067 -2.33043e-06 0.000117153 30.0077 -2.4062e-06 8.72669e-05 30.0044
-1.36783e-06 -0.00312653 30.0086 -2.4412e-06 -0.000390157 30.0051 -1.51009e-06 -0.00413429 30.0072 -2.37965e-06
0.000195823 30.0094 -2.31647e-06 -0.00335227 30.0081 -2.04681e-06 -0.00491646 30.0093 -2.45521e-06 -0.00120039
30.0062 -1.71235e-06 -0.00481726 30.007 -2.35587e-06 0.000195624 30.0095 -2.43288e-06 -0.00189032 30.0068