# vtk DataFile Version 2.0
track0
ASCII
DATASET POLYDATA
POINTS 15780 float
-1.001 -0.05 0.0011
-1.0008 -0.05 0.0011
-1.0006 -0.05 0.0011
-1.0004 -0.05 0.0011
-1.0002 -0.05 0.0011
-1 -0.05 0.0011
-0.9875 -0.05 0.0011
-0.975 -0.05 0.0011
-0.9625 -0.05 0.0011
-0.95 -0.05 0.0011
-0.9375 -0.05 0.00109999
-0.925 -0.05 0.00109999
-0.9125 -0.05 0.00109999
-0.9 -0.05 0.00109999
-0.8875 -0.05 0.00109999
-0.875 -0.05 0.00109999
-0.8625 -0.05 0.00109999
-0.85 -0.05 0.00109999
-0.8375 -0.05 0.00109998
-0.825 -0.0500001 0.00109998
-0.8125 -0.0500001 0.00109998
-0.8 -0.0500001 0.00109998
-0.7875 -0.0500001 0.00109998
-0.775 -0.0500001 0.00109998
-0.7625 -0.0500001 0.00109998
-0.75 -0.0500001 0.00109998
-0.7375 -0.0500001 0.00109997
-0.725 -0.0500001 0.00109997
-0.7125 -0.0500001 0.00109997
-0.7 -0.0500001 0.00109997
-0.6875 -0.0500001 0.00109997
-0.675 -0.0500001 0.00109997
-0.6625 -0.0500001 0.00109997
-0.65 -0.0500001 0.00109996
-0.6375 -0.0500001 0.00109996
-0.625 -0.0500001 0.00109996
-0.6125 -0.0500001 0.00109996
-0.6 -0.0500001 0.00109996
-0.5875 -0.0500001 0.00109996
-0.575 -0.0500001 0.00109996
-0.5625 -0.0500001 0.00109996
-0.55 -0.0500001 0.00109995
-0.5375 -0.0500001 0.00109995
-0.525 -0.0500001 0.00109995
-0.5125 -0.0500001 0.00109995
-0.5 -0.0500001 0.00109995
-0.4875 -0.0500001 0.00109995
-0.475 -0.0500001 0.00109995
-0.4625 -0.0500001 0.00109994
-0.45 -0.0500002 0.00109994
-0.4375 -0.0500002 0.00109994
-0.425 -0.0500002 0.00109994
-0.4125 -0.0500002 0.00109994
-0.4 -0.0500002 0.00109994
-0.3875 -0.0500002 0.00109994
-0.375 -0.0500002 0.00109994
-0.3625 -0.0500002 0.00109993
-0.35 -0.0500002 0.00109993
-0.3375 -0.0500002 0.00109993
-0.325 -0.0500002 0.00109993
-0.3125 -0.0500002 0.00109993
-0.3 -0.0500002 0.00109993
-0.2875 -0.0500002 0.00109993
-0.275 -0.0500002 0.00109993
-0.2625 -0.0500002 0.00109992
-0.25 -0.0500002 0.00109992
-0.2375 -0.0500002 0.00109992
-0.225 -0.0500002 0.00109992
-0.2125 -0.0500002 0.00109992
-0.2 -0.0500002 0.00109992
-0.1875 -0.0500002 0.00109992
-0.175 -0.0500002 0.00109992
-0.1625 -0.0500002 0.00109991
-0.15 -0.0500002 0.00109991
-0.1375 -0.0500002 0.00109991
-0.125 -0.0500002 0.00109991
-0.1125 -0.0500002 0.00109991
-0.1 -0.0500002 0.00109991
-0.0875 -0.0500002 0.00109991
-0.075 -0.0500002 0.00109991
-0.0625 -0.0500002 0.00109991
-0.05 -0.0500003 0.00109991
-0.0375 -0.0500003 0.0010999
-0.025 -0.0500003 0.0010999
-0.0125 -0.0500003 0.0010999
2.10607e-13 -0.0500003 0.0010999
0.0125 -0.0500003 0.0010999
0.025 -0.0500003 0.0010999
0.0375 -0.0500003 0.0010999
0.05 -0.0500003 0.0010999
0.0625 -0.0500003 0.0010999
0.075 -0.0500003 0.0010999
0.0875 -0.0500003 0.0010999
0.1 -0.0500003 0.00109989
0.1125 -0.0500003 0.00109989
0.125 -0.0500003 0.00109989
0.1375 -0.0500003 0.00109989
0.15 -0.0500003 0.00109989
0.1625 -0.0500003 0.00109989
0.175 -0.0500003 0.00109989
0.1875 -0.0500003 0.00109989
0.2 -0.0500003 0.00109989
0.2125 -0.0500003 0.00109989
0.225 -0.0500003 0.00109989
0.2375 -0.0500003 0.00109989
0.25 -0.0500003 0.00109989
0.2625 -0.0500003 0.00109988
0.275 -0.0500003 0.00109988
0.2875 -0.0500003 0.00109988
0.3 -0.0500003 0.00109988
0.3125 -0.0500003 0.00109988
0.325 -0.0500003 0.00109988
0.3375 -0.0500003 0.00109988
0.35 -0.0500003 0.00109988
0.3625 -0.0500003 0.00109988
0.375 -0.0500003 0.00109988
0.3875 -0.0500003 0.00109988
0.4 -0.0500004 0.00109988
0.4125 -0.0500004 0.00109988
0.425 -0.0500004 0.00109988
0.4375 -0.0500004 0.00109988
0.45 -0.0500004 0.00109988
0.4625 -0.0500004 0.00109988
0.475 -0.0500004 0.00109988
0.4875 -0.0500004 0.00109988
0.5 -0.0500004 0.00109988
0.5125 -0.0500004 0.00109988
0.525 -0.0500004 0.00109988
0.5375 -0.0500004 0.00109988
0.55 -0.0500004 0.00109988
0.5625 -0.0500004 0.00109988
0.575 -0.0500004 0.00109987
0.5875 -0.0500004 0.00109987
0.6 -0.0500004 0.00109987
0.6125 -0.0500004 0.00109987
0.625 -0.0500004 0.00109987
0.6375 -0.0500004 0.00109987
0.65 -0.0500004 0.00109987
0.6625 -0.0500004 0.00109987
0.675 -0.0500004 0.00109987
0.6875 -0.0500004 0.00109987
0.7 -0.0500004 0.00109987
0.7125 -0.0500004 0.00109987
0.725 -0.0500004 0.00109987
0.7375 -0.0500004 0.00109987
0.75 -0.0500004 0.00109987
0.7625 -0.0500004 0.00109987
0.775 -0.0500004 0.00109987
0.7875 -0.0500004 0.00109987
0.8 -0.0500004 0.00109987
0.8125 -0.0500004 0.00109987
0.825 -0.0500004 0.00109987
0.8375 -0.0500004 0.00109987
0.85 -0.0500004 0.00109987
0.8625 -0.0500004 0.00109987
0.875 -0.0500004 0.00109987
0.8875 -0.0500004 0.00109987
0.9 -0.0500004 0.00109987
0.9125 -0.0500005 0.00109988
0.925 -0.0500005 0.00109988
0.9375 -0.0500005 0.00109988
0.95 -0.0500005 0.00109988
0.9625 -0.0500005 0.00109988
0.975 -0.0500005 0.00109988
0.9875 -0.0500005 0.00109988
1 -0.0500005 0.00109988
1.0125 -0.0500005 0.00109988
1.025 -0.0500005 0.00109988
1.0375 -0.0500005 0.00109988
1.05 -0.0500005 0.00109988
1.0625 -0.0500005 0.00109988
1.075 -0.0500005 0.00109988
1.0875 -0.0500005 0.00109988
1.1 -0.0500005 0.00109988
1.1125 -0.0500005 0.00109988
1.125 -0.0500005 0.00109988
1.1375 -0.0500005 0.00109988
1.15 -0.0500005 0.00109988
1.1625 -0.0500005 0.00109988
1.175 -0.0500005 0.00109988
1.1875 -0.0500005 0.00109988
1.2 -0.0500005 0.00109988
1.2125 -0.0500005 0.00109988
1.225 -0.0500005 0.00109988
1.2375 -0.0500005 0.00109989
1.25 -0.0500005 0.00109989
1.2625 -0.0500005 0.00109989
1.275 -0.0500005 0.00109989
1.2875 -0.0500005 0.00109989
1.3 -0.0500005 0.00109989
1.3125 -0.0500005 0.00109989
1.325 -0.0500005 0.00109989
1.3375 -0.0500005 0.00109989
1.35 -0.0500005 0.00109989
1.3625 -0.0500005 0.00109989
1.375 -0.0500005 0.00109989
1.3875 -0.0500005 0.00109989
1.4 -0.0500005 0.00109989
1.4125 -0.0500005 0.00109989
1.425 -0.0500005 0.00109989
1.4375 -0.0500005 0.0010999
1.45 -0.0500005 0.0010999
1.4625 -0.0500005 0.0010999
1.475 -0.0500005 0.0010999
1.4875 -0.0500005 0.0010999
1.5 -0.0500006 0.0010999
1.5125 -0.0500006 0.0010999
1.525 -0.0500006 0.0010999
1.5375 -0.0500006 0.0010999
1.55 -0.0500006 0.0010999
1.5625 -0.0500006 0.0010999
1.575 -0.0500006 0.0010999
1.5875 -0.0500006 0.0010999
1.6 -0.0500006 0.0010999
1.6125 -0.0500006 0.00109991
1.625 -0.0500006 0.00109991
1.6375 -0.0500006 0.00109991
1.65 -0.0500006 0.00109991
1.6625 -0.0500006 0.00109991
1.675 -0.0500006 0.00109991
1.6875 -0.0500006 0.00109991
1.7 -0.0500006 0.00109991
1.7125 -0.0500006 0.00109991
1.725 -0.0500006 0.00109991
1.7375 -0.0500006 0.00109991
1.75 -0.0500006 0.00109991
1.7625 -0.0500006 0.00109992
1.775 -0.0500006 0.00109992
1.7875 -0.0500006 0.00109992
1.8 -0.0500006 0.00109992
1.8125 -0.0500006 0.00109992
1.825 -0.0500006 0.00109992
1.8375 -0.0500006 0.00109992
1.85 -0.0500006 0.00109992
1.8625 -0.0500006 0.00109992
1.875 -0.0500006 0.00109992
1.8875 -0.0500006 0.00109992
1.9 -0.0500006 0.00109992
1.9125 -0.0500006 0.00109993
1.925 -0.0500006 0.00109993
1.9375 -0.0500006 0.00109993
1.95 -0.0500006 0.00109993
1.9625 -0.0500006 0.00109993
1.975 -0.0500006 0.00109993
1.9875 -0.0500006 0.00109993
2 -0.0500006 0.00109993
2.0125 -0.0500006 0.00109993
2.025 -0.0500006 0.00109993
2.0375 -0.0500006 0.00109993
2.05 -0.0500006 0.00109993
2.0625 -0.0500006 0.00109994
2.075 -0.0500006 0.00109994
2.0875 -0.0500006 0.00109994
2.1 -0.0500006 0.00109994
2.1125 -0.0500006 0.00109994
2.125 -0.0500006 0.00109994
2.1375 -0.0500006 0.00109994
2.15 -0.0500006 0.00109994
2.1625 -0.0500006 0.00109994
2.175 -0.0500007 0.00109994
2.1875 -0.0500007 0.00109994
2.2 -0.0500007 0.00109994
2.2125 -0.0500007 0.00109994
2.225 -0.0500007 0.00109995
2.2375 -0.0500007 0.00109995
2.25 -0.0500007 0.00109995
2.2625 -0.0500007 0.00109995
2.275 -0.0500007 0.00109995
2.2875 -0.0500007 0.00109995
2.3 -0.0500007 0.00109995
2.3125 -0.0500007 0.00109995
2.325 -0.0500007 0.00109995
2.3375 -0.0500007 0.00109995
2.35 -0.0500007 0.00109995
2.3625 -0.0500007 0.00109995
2.375 -0.0500007 0.00109995
2.3875 -0.0500007 0.00109996
2.4 -0.0500007 0.00109996
2.4125 -0.0500007 0.00109996
2.425 -0.0500007 0.00109996
2.4375 -0.0500007 0.00109996
2.45 -0.0500007 0.00109996
2.4625 -0.0500007 0.00109996
2.475 -0.0500007 0.00109996
2.4875 -0.0500007 0.00109996
2.5 -0.0500007 0.00109996
2.5125 -0.0500007 0.00109996
2.525 -0.0500007 0.00109996
2.5375 -0.0500007 0.00109996
2.55 -0.0500007 0.00109996
2.5625 -0.0500007 0.00109997
2.575 -0.0500007 0.00109997
2.5875 -0.0500007 0.00109997
2.6 -0.0500007 0.00109997
2.6125 -0.0500007 0.00109997
2.625 -0.0500007 0.00109997
2.6375 -0.0500007 0.00109997
2.65 -0.0500007 0.00109997
2.6625 -0.0500007 0.00109997
2.675 -0.0500007 0.00109997
2.6875 -0.0500007 0.00109997
2.7 -0.0500007 0.00109997
2.7125 -0.0500007 0.00109997
2.725 -0.0500007 0.00109997
2.7375 -0.0500007 0.00109997
2.75 -0.0500007 0.00109997
2.7625 -0.0500007 0.00109998
2.775 -0.0500007 0.00109998
2.7875 -0.0500007 0.00109998
2.8 -0.0500007 0.00109998
2.8125 -0.0500007 0.00109998
2.825 -0.0500007 0.00109998
2.8375 -0.0500007 0.00109998
2.85 -0.0500007 0.00109998
2.8625 -0.0500008 0.00109998
2.875 -0.0500008 0.00109998
2.8875 -0.0500008 0.00109998
2.9 -0.0500008 0.00109998
2.9125 -0.0500008 0.00109998
2.925 -0.0500008 0.00109998
2.9375 -0.0500008 0.00109998
2.95 -0.0500008 0.00109998
2.9625 -0.0500008 0.00109998
2.975 -0.0500008 0.00109998
2.9875 -0.0500008 0.00109998
3 -0.0500008 0.00109998
3.0125 -0.0500008 0.00109999
3.025 -0.0500008 0.00109999
3.0375 -0.0500008 0.00109999
3.05 -0.0500008 0.00109999
3.0625 -0.0500008 0.00109999
3.075 -0.0500008 0.00109999
3.0875 -0.0500008 0.00109999
3.1 -0.0500008 0.00109999
3.1125 -0.0500008 0.00109999
3.125 -0.0500008 0.00109999
3.1375 -0.0500008 0.00109999
3.15 -0.0500008 0.00109999
3.1625 -0.0500008 0.00109999
3.175 -0.0500008 0.00109999
3.1875 -0.0500008 0.00109999
3.2 -0.0500008 0.00109999
3.2125 -0.0500008 0.00109999
3.225 -0.0500008 0.00109999
3.2375 -0.0500008 0.00109999
3.25 -0.0500008 0.00109999
3.2625 -0.0500008 0.00109999
3.275 -0.0500008 0.00109999
3.2875 -0.0500008 0.00109999
3.3 -0.0500008 0.00109999
3.3125 -0.0500008 0.00109999
3.325 -0.0500008 0.00109999
3.3375 -0.0500008 0.00109999
3.35 -0.0500008 0.0011
3.3625 -0.0500008 0.0011
[...]
POINT_DATA 15780
 FIELD attributes 2
p 1 15780 float
-0.0310984 -0.0311144 -0.0311305 -0.0311465 -0.0311626 -0.0311786 -0.0321101 -0.0330338 -0.0339576 -0.0348813 -0.0359017 -0.0369656 -0.038032 -0.0390983 -0.0401647 -0.0411844 -0.0421678 -0.0431326 -0.0440974 -0.0450622 -0.0459754 -0.0468732 -0.0477758 -0.0486783 -0.0495809 -0.0504776 -0.0513782 -0.0522797 -0.0531812 -0.0540827 -0.0549836 -0.0558911 -0.056799 -0.057707 -0.0586149 -0.0595224 -0.060422 -0.0613195 -0.062217 -0.0631145 -0.0640091 -0.0648881 -0.0657653 -0.0666424 -0.0675196 -0.0683946 -0.069252 -0.0701073 -0.0709626 -0.0718179 -0.0726713 -0.0735059 -0.074338 -0.07517 -0.0760021 -0.0768318 -0.07764 -0.0784452 -0.0792504 -0.0800555 -0.0808578 -0.081636 -0.0824102 -0.0831845 -0.0839588 -0.0847294 -0.0854736 -0.0862135 -0.0869535 -0.0876934 -0.0884295 -0.0891368 -0.0898394 -0.0905419 -0.0912445 -0.0919424 -0.0926097 -0.0932719 -0.0939341 -0.0945962 -0.0952534 -0.0958778 -0.0964967 -0.0971155 -0.0977344 -0.0983477 -0.0989266 -0.0994998 -0.100073 -0.100646 -0.101214 -0.101746 -0.102272 -0.102798 -0.103325 -0.103845 -0.104329 -0.104807 -0.105285 -0.105762 -0.106234 -0.106668 -0.107095 -0.107521 -0.107948 -0.108367 -0.108748 -0.109121 -0.109494 -0.109866 -0.110232 -0.110556 -0.110873 -0.11119 -0.111507 -0.111817 -0.112085 -0.112345 -0.112605 -0.112865 -0.113118 -0.113328 -0.113531 -0.113733 -0.113936 -0.114131 -0.114283 -0.114427 -0.114571 -0.114715 -0.114851 -0.114944 -0.115029 -0.115115 -0.1152 -0.115278 -0.115314 -0.115343 -0.115372 -0.1154 -0.115422 -0.115404 -0.115378 -0.115353 -0.115327 -0.115295 -0.115224 -0.115146 -0.115069 -0.114991 -0.114906 -0.114783 -0.114654 -0.114524 -0.114395 -0.114258 -0.114084 -0.113903 -0.113722 -0.11354 -0.113352 -0.113128 -0.112898 -0.112667 -0.112437 -0.112199 -0.111929 -0.111652 -0.111375 -0.111098 -0.110815 -0.110501 -0.11018 -0.109859 -0.109539 -0.109211 -0.108855 -0.108492 -0.10813 -0.107767 -0.107398 -0.107002 -0.1066 -0.106198 -0.105796 -0.105388 -0.104955 -0.104517 -0.104079 -0.10364 -0.103196 -0.10273 -0.10226 -0.101789 -0.101319 -0.100844 -0.10035 -0.0998515 -0.0993534 -0.0988553 -0.0983531 -0.0978343 -0.0973119 -0.0967894 -0.096267 -0.0957407 -0.0951997 -0.0946554 -0.094111 -0.0935666 -0.0930186 -0.0924576 -0.0918938 -0.0913301 -0.0907663 -0.0901993 -0.0896217 -0.0890415 -0.0884613 -0.0878811 -0.087298 -0.0867065 -0.0861131 -0.0855197 -0.0849263 -0.0843307 -0.0837288 -0.0831253 -0.0825217 -0.0819182 -0.0813127 -0.080703 -0.0800922 -0.0794814 -0.0788705 -0.0782583 -0.0776438 -0.0770284 -0.076413 -0.0757976 -0.0751809 -0.074564 -0.0739465 -0.0733291 -0.0727117 -0.0720936 -0.0714768 -0.0708598 -0.0702428 -0.0696258 -0.0690083 -0.0683937 -0.0677794 -0.0671651 -0.0665507 -0.0659363 -0.0653263 -0.0647166 -0.0641069 -0.0634972 -0.0628876 -0.0622836 -0.0616804 -0.0610772 -0.060474 -0.0598713 -0.0592754 -0.0586804 -0.0580854 -0.0574903 -0.056896 -0.0563095 -0.0557242 -0.0551389 -0.0545537 -0.0539694 -0.053394 -0.0528198 -0.0522457 -0.0516716 -0.0510986 -0.0505352 -0.0499734 -0.0494116 -0.0488499 -0.0482895 -0.0477395 -0.0471911 -0.0466428 -0.0460944 -0.0455476 -0.0450116 -0.0444776 -0.0439435 -0.0434095 -0.0428772 -0.0423563 -0.0418374 -0.0413184 -0.0407995 -0.0402823 -0.039777 -0.0392738 -0.0387706 -0.0382674 -0.0377662 -0.0372771 -0.0367901 -0.0363031 -0.0358161 -0.0353312 -0.0348586 -0.0343882 -0.0339179 -0.0334475 -0.0329793 -0.0325236 -0.0320701 -0.0316167 -0.0311632 -0.0307119 -0.0302731 -0.0298367 -0.0294003 -0.0289638 -0.0285298 -0.0281081 -0.0276887 -0.0272694 -0.0268501 -0.0264331 -0.0260285 -0.0256262 -0.025224 -0.0248217 -0.0244219 -0.0240344 -0.0236493 -0.0232642 -0.022879 -0.0224963 -0.0221259 -0.021758 -0.0213902 -0.0210223 -0.0206568 -0.0203036 -0.0199529 -0.0196021 -0.0192514 -0.018903 -0.0185663 -0.0182323 -0.0178983 -0.0175643 -0.0172327 -0.0169123 -0.0165944 -0.0162765 -0.0159586 -0.0156432 -0.0153386 -0.0150363 -0.014734 -0.0144317 -0.0141319 -0.0138425 -0.0135554 -0.0132684 -0.0129813 -0.0126968 -0.0124225 -0.0121504 -0.0118783 -0.0116062 -0.0113364 -0.0110767 -0.0108193 -0.0105618 -0.0103043 -0.0100491 -0.00980385 -0.0095607 -0.00931754 -0.00907438 -0.00883342 -0.00860195 -0.00837251 -0.00814308 -0.00791364 -0.00768629 -0.00746793 -0.00725168 -0.00703544 -0.00681919 -0.00660502 -0.00639949 -0.00619599 -0.00599249 -0.00578899 -0.00558749 -0.00539427 -0.00520315 -0.00501204 -0.00482093 -0.00463191 -0.00445087 -0.00427193 -0.004093 -0.00391406 -0.00373717 -0.00356794 -0.00340076 -0.00323358 -0.00306639 -0.00290126 -0.00274321 -0.00258703 -0.00243085 -0.00227468 -0.00212053 -0.00197302 -0.00182704 -0.00168106 -0.00153507 -0.00139087 -0.00125291 -0.00111655 -0.00098019 -0.00084383 -0.000709244 -0.000580568 -0.000453501 -0.000326435 -0.000199368 -7.39464e-05 4.57232e-05 0.000163777 0.000281831 0.000399885 0.000516321 0.000627309 0.000736712 0.000846115 0.000955517 0.0010633 0.00116603 0.00126723 0.00136842 0.00146961 0.00156921 0.00166411 0.00175754 0.00185098 0.00194441 0.00203634 0.00212387 0.00220998 0.00229609 0.00238219 0.00246682 0.00254733 0.0026265 0.00270568 0.00278485 0.00286263 0.00293657 0.00300919 0.00308182 0.00315444 0.00322568 0.00329338 0.00335983 0.00342628 0.00349273 0.00355789 0.00361974 0.00368038 0.00374102 0.00380165 0.00386101 0.00391733 0.00397251 0.00402769 0.00408287 0.00413684 0.00418804 0.0042381 0.00428816 0.00433822 0.00438707 0.00443338 0.00447861 0.00452385 0.00456908 0.00461319 0.00465496 0.00469566 0.00473637 0.00477708 0.00481667 0.00485412 0.00489059 0.00492706 0.00496353 0.00499894 0.00503244 0.00506495 0.00509746 0.00512997 0.00516144 0.00519117 0.00521998 0.0052488 0.00527761 0.00530546 0.00533173 0.0053571 0.00538246 0.00540783 0.00543223 0.00545524 0.00547739 0.00549955 0.00552171 0.00554297 0.005563 0.00558219 0.00560137 0.00562056 0.00563884 0.00565607 0.0056725 0.00568894 0.00570537 0.00572097 0.00573564 0.00574953 0.00576342 0.00577731 0.00579037 0.00580263 0.00581417 0.00582571 0.00583726 0.00584802 0.00585812 0.0058675 0.00587688 0.00588626 0.00589486 0.00590293 0.00591032 0.00591771 0.0059251 0.00593178 0.00593802 0.0059436 0.00594917 0.00595474 0.0059596 0.00596414 0.00596806 0.00597198 0.00597589 0.00597914 0.00598218 0.00598459 0.00598701 0.00598942 0.00599116 0.00599279 0.00599383 0.00599488 0.00599592 0.00599634 0.00599673 0.00599653 0.00599634 0.00599614 0.00599531 0.00599455 0.00599325 0.00599194 0.00599063 0.00598874 0.00598701 0.00598472 0.00598243 0.00598014 0.00597726 0.00597461 0.00597144 0.00596827 0.0059651 0.00596139 0.00595796 0.00595402 0.00595007 0.00594613 0.00594164 0.00593751 0.0059329 0.00592829 0.00592368 0.00591855 0.00591387 0.00590869 0.00590352 0.00589834 0.00589265 0.00588747 0.00588182 0.00587617 0.00587052 0.00586439 0.00585882 0.00585279 0.00584676 0.00584072 0.00583421 0.00582832 0.00582198 0.00581565 0.00580932 0.00580253 0.00579642 0.00578987 0.00578332 0.00577677 0.00576976 0.00576349 0.0057568 0.00575011 0.00574342 0.0057363 0.00572996 0.0057232 0.00571644 0.00570968 0.0057025 0.00569615 0.00568939 0.00568264 0.00567589 0.00566872 0.00566244 0.00565576 0.00564908 0.0056424 0.00563531 0.00562916 0.00562261 0.00561607 0.00560952 0.00560258 0.00559663 0.00559028 0.00558394 0.00557759 0.00557086 0.00556516 0.00555907 0.00555298 0.0055469 0.00554043 0.00553503 0.00552926 0.00552348 0.00551771 0.00551156 0.00550653 0.00550112 0.00549571 0.00549029 0.0054845 0.00547987 0.00547486 0.00546984 0.00546483 0.00545945 0.00545526 0.00545067 0.00544608 0.00544149 0.00543653 0.00543274 0.00542858 0.00542441 0.00542024 0.0054157 0.00541231 0.0054085 0.00540468 0.00540087 0.00539666 0.00539346 0.00538982 0.00538618 0.00538253 0.00537847 0.00537506 0.00537114 0.00536722 0.0053633 0.0053589 0.00535399 0.00534827 0.00534254 0.00533681 0.0053303 0.00532152 0.00531231 0.0053031 0.00529389 0.00528419 0.00525806 0.00522641 0.00519476 0.0051631 0.00512657 0.00511508 0.00511773 0.00512039 0.00512304 0.00514866 0.00523225 0.00530829 0.00538766 0.00545062 0.00549623 0.00548921 0.00548537 0.00548154 0.00547773 0.00547619 0.00550307 0.00553075 0.00555843 0.0055781 0.00559906 0.00561299 0.00563183 0.00565071 0.00566958 0.00568391 0.00574679 0.0058118 0.00587681 0.00594181 0.00599832 0.00608974 0.00616584 0.00624195 0.00631805 0.00632319 0.00630855 0.00628917 0.00626979 0.0062504 0.00624052 0.00603966 0.0058181 0.00559654 0.00537497 0.0050476 0.00456762 0.00407374 0.00357986 0.00308598 0.00262189 0.00235213 0.00207483 0.00179753 0.00152023 0.00127289 0.0011743 0.00106927 0.00096425 0.000859227 0.000773585 0.000667672 0.000556202 0.000444732 0.000333261 0.000255276
-0.0319478 -0.0319669 -0.031986 -0.0320051 -0.0320242 -0.0320433 -0.0327442 -0.0336218 -0.0344045 -0.0351669 -0.0362252 -0.0372619 -0.0382523 -0.0392547 -0.0403142 -0.0412981 -0.0422593 -0.0432254 -0.044166 -0.0451012 -0.0460071 -0.0469052 -0.0478113 -0.0487172 -0.0496224 -0.0505274 -0.0514191 -0.0523228 -0.0532315 -0.0541413 -0.0550616 -0.0559668 -0.056879 -0.0577907 -0.0587002 -0.0596153 -0.0605166 -0.061415 -0.0623146 -0.0632144 -0.0641106 -0.0649917 -0.0658717 -0.0667512 -0.0676289 -0.0685047 -0.0693629 -0.0702186 -0.0710768 -0.0719355 -0.0727921 -0.0736261 -0.0744615 -0.0752963 -0.0761287 -0.0769623 -0.0777696 -0.078575 -0.0793827 -0.0801909 -0.0809977 -0.0817733 -0.0825505 -0.0833272 -0.0841016 -0.0848775 -0.0856183 -0.0863584 -0.0871006 -0.0878434 -0.0885857 -0.0892881 -0.0899933 -0.090698 -0.0914006 -0.0921061 -0.0927674 -0.0934295 -0.0940937 -0.0947583 -0.0954242 -0.096041 -0.0966621 -0.0972828 -0.0979015 -0.0985243 -0.0990933 -0.0996663 -0.100241 -0.100816 -0.101395 -0.101915 -0.102442 -0.102969 -0.103495 -0.10403 -0.104502 -0.10498 -0.105458 -0.105937 -0.106422 -0.106844 -0.107271 -0.107698 -0.108125 -0.108556 -0.108926 -0.109299 -0.109671 -0.110044 -0.110419 -0.110734 -0.11105 -0.111366 -0.111683 -0.112002 -0.112261 -0.112521 -0.112781 -0.11304 -0.1133 -0.113502 -0.113704 -0.113906 -0.114109 -0.114311 -0.114455 -0.114599 -0.114743 -0.114887 -0.11503 -0.115112 -0.115198 -0.115283 -0.115368 -0.115456 -0.11548 -0.115509 -0.115537 -0.115566 -0.1156 -0.115567 -0.115541 -0.115515 -0.11549 -0.11547 -0.115386 -0.115308 -0.115228 -0.115148 -0.115075 -0.114939 -0.114806 -0.114674 -0.114544 -0.114416 -0.11423 -0.114048 -0.113864 -0.113679 -0.113499 -0.113264 -0.11303 -0.112796 -0.112565 -0.112336 -0.112054 -0.111777 -0.111497 -0.111216 -0.11094 -0.110615 -0.110291 -0.109967 -0.109646 -0.109325 -0.10896 -0.108597 -0.108232 -0.107867 -0.107503 -0.1071 -0.106696 -0.106292 -0.10589 -0.105487 -0.105046 -0.104608 -0.104168 -0.103728 -0.103289 -0.102813 -0.10234 -0.101867 -0.101396 -0.100928 -0.100422 -0.0999237 -0.0994226 -0.0989209 -0.0984259 -0.0978968 -0.0973705 -0.0968449 -0.0963219 -0.0958017 -0.0952521 -0.0947073 -0.09416 -0.093612 -0.093069 -0.0925004 -0.0919334 -0.0913668 -0.0908027 -0.0902396 -0.089655 -0.0890745 -0.0884916 -0.0879083 -0.0873288 -0.086731 -0.0861346 -0.0855387 -0.0849449 -0.0843522 -0.0837446 -0.0831407 -0.0825347 -0.0819283 -0.0813256 -0.0807107 -0.0800972 -0.0794841 -0.078873 -0.0782628 -0.0776437 -0.077028 -0.0764104 -0.0757924 -0.0751778 -0.0745567 -0.0739369 -0.0733175 -0.0726998 -0.072083 -0.0714627 -0.0708455 -0.0702266 -0.0696074 -0.0689912 -0.0683737 -0.0677574 -0.0671414 -0.0665269 -0.0659133 -0.0653007 -0.0646908 -0.0640796 -0.0634681 -0.0628592 -0.0622532 -0.0616483 -0.0610437 -0.0604403 -0.0598379 -0.0592402 -0.0586451 -0.0580488 -0.0574523 -0.0568581 -0.0562704 -0.0556838 -0.0550974 -0.0545121 -0.0539276 -0.0533512 -0.052777 -0.0522019 -0.0516266 -0.0510534 -0.0504895 -0.0499267 -0.0493641 -0.0488022 -0.0482413 -0.047691 -0.0471426 -0.0465935 -0.0460443 -0.0454968 -0.044961 -0.0444262 -0.0438916 -0.0433575 -0.0428243 -0.0423038 -0.0417848 -0.0412654 -0.0407459 -0.0402278 -0.0397231 -0.0392195 -0.0387159 -0.0382127 -0.0377103 -0.0372221 -0.0367351 -0.0362479 -0.0357605 -0.0352745 -0.0348029 -0.0343323 -0.0338618 -0.0333915 -0.032922 -0.0324674 -0.032014 -0.0315605 -0.0311069 -0.0306543 -0.0302169 -0.0297805 -0.029344 -0.0289077 -0.0284722 -0.028052 -0.0276327 -0.0272135 -0.0267943 -0.0263759 -0.0259729 -0.0255708 -0.0251687 -0.0247665 -0.0243653 -0.0239793 -0.0235942 -0.0232092 -0.0228243 -0.0224403 -0.0220713 -0.0217037 -0.021336 -0.0209682 -0.0206015 -0.0202496 -0.0198989 -0.0195484 -0.0191979 -0.0188486 -0.0185132 -0.0181792 -0.0178453 -0.0175114 -0.0171787 -0.0168601 -0.0165423 -0.0162246 -0.0159068 -0.0155901 -0.0152877 -0.0149857 -0.0146836 -0.0143815 -0.0140797 -0.0137932 -0.0135063 -0.0132196 -0.0129329 -0.012646 -0.0123747 -0.012103 -0.0118313 -0.0115592 -0.011287 -0.01103 -0.0107726 -0.0105155 -0.0102585 -0.010001 -0.00975825 -0.00951555 -0.00927277 -0.00902966 -0.00878674 -0.00855776 -0.00832841 -0.00809946 -0.0078706 -0.00764126 -0.00742557 -0.00721005 -0.00699442 -0.00677829 -0.00656242 -0.00635933 -0.00615594 -0.00595308 -0.00575033 -0.00554729 -0.0053563 -0.00516593 -0.00497544 -0.00478441 -0.00459393 -0.00441478 -0.0042359 -0.00405742 -0.00387903 -0.00370101 -0.003533 -0.00336606 -0.00319907 -0.00303193 -0.0028656 -0.00270898 -0.00255287 -0.00239686 -0.00224088 -0.00208554 -0.00193985 -0.00179426 -0.00164863 -0.00150277 -0.0013572 -0.00122178 -0.00108555 -0.000949706 -0.000813945 -0.000677422 -0.000551456 -0.000425054 -0.000298551 -0.000171596 -4.43534e-05 7.29196e-05 0.000190888 0.000308417 0.000425848 0.000544017 0.000652836 0.000761691 0.000870633 0.000979967 0.00108932 0.00119003 0.00129116 0.00139194 0.00149263 0.0015937 0.00168671 0.00177967 0.00187271 0.00196608 0.00205938 0.00214504 0.00223108 0.0023168 0.00240245 0.00248842 0.00256716 0.00264588 0.00272466 0.00280376 0.00288281 0.00295498 0.00302754 0.00309977 0.00317193 0.00324441 0.00331048 0.00337649 0.00344257 0.00350896 0.00357528 0.00363552 0.0036961 0.00375641 0.00381665 0.00387716 0.00393196 0.00398679 0.00404168 0.0040968 0.00415194 0.00420156 0.00425156 0.00430132 0.00435103 0.00440105 0.00444584 0.00449072 0.00453565 0.00458083 0.00462608 0.0046663 0.00470695 0.00474736 0.00478772 0.00482844 0.00486444 0.00490057 0.00493676 0.00497318 0.00500971 0.00504172 0.00507418 0.00510642 0.0051386 0.00517118 0.00519951 0.00522802 0.00525657 0.00528534 0.00531427 0.00533912 0.00536444 0.00538956 0.00541464 0.00544012 0.00546178 0.00548367 0.00550559 0.00552771 0.00555003 0.00556869 0.00558784 0.0056068 0.00562572 0.00564506 0.00566099 0.00567717 0.00569339 0.00570978 0.00572641 0.00573976 0.00575362 0.0057673 0.00578094 0.00579502 0.00580605 0.00581735 0.0058287 0.0058402 0.00585197 0.0058608 0.00587015 0.00587934 0.00588849 0.0058981 0.00590496 0.00591214 0.00591935 0.00592671 0.00593437 0.00593939 0.00594493 0.00595033 0.00595571 0.00596156 0.00596493 0.00596866 0.00597242 0.00597631 0.00598053 0.00598237 0.00598475 0.00598702 0.00598925 0.00599197 0.00599247 0.00599334 0.00599424 0.00599525 0.00599664 0.00599586 0.00599563 0.0059953 0.00599494 0.00599509 0.0059932 0.00599174 0.00599031 0.00598898 0.00598807 0.0059852 0.00598289 0.00598047 0.00597803 0.00597611 0.00597238 0.00596907 0.00596578 0.00596259 0.0059598 0.00595528 0.00595132 0.00594727 0.00594319 0.00593962 0.00593446 0.00592972 0.00592501 0.00592038 0.00591618 0.00591043 0.00590524 0.00589997 0.00589468 0.00588991 0.0058837 0.00587795 0.00587221 0.00586655 0.00586134 0.00585472 0.00584867 0.00584256 0.00583643 0.00583083 0.00582393 0.0058175 0.00581109 0.00580474 0.00579888 0.00579174 0.00578517 0.00577855 0.00577191 0.00576582 0.00575856 0.00575179 0.00574503 0.00573832 0.00573212 0.00572477 0.005718 0.00571118 0.00570435 0.00569807 0.00569075 0.00568393 0.00567712 0.00567035 0.00566411 0.00565683 0.00565014 0.00564341 0.00563666 0.00563049 0.00562337 0.00561677 0.00561018 0.00560363 0.00559761 0.00559067 0.00558432 0.00557793 0.00557154 0.00556573 0.00555906 0.00555294 0.00554682 0.00554072 0.0055352 0.00552882 0.00552304 0.00551724 0.00551144 0.00550623 0.00550023 0.0054948 0.00548938 0.00548396 0.00547914 0.00547353 0.00546851 0.0054635 0.0054585 0.00545409 0.00544892 0.00544438 0.00543982 0.00543524 0.0054313 0.00542654 0.00542238 0.00541829 0.00541422 0.00541077 0.00540639 0.0054028 0.00539917 0.00539538 0.0053924 0.00538823 0.00538464 0.0053814 0.00537825 0.00537569 0.00537136 0.00536854 0.00536554 0.00536176 0.00535948 0.00535415 0.0053489 0.0053459 0.00534344 0.005341 0.00533196 0.00533022 0.0053273 0.00531935 0.00531831 0.00530399 0.00527942 0.00527491 0.00527512 0.00526438 0.00522148 0.00523305 0.00524342 0.00524869 0.0053168 0.00541026 0.00547381 0.00553738 0.00557536 0.00552905 0.00550983 0.00550278 0.00549574 0.00548824 0.00549224 0.00550977 0.00552794 0.0055461 0.0055578 0.00556906 0.00557011 0.00557116 0.00557221 0.00557314 0.00557384 0.00559866 0.00562761 0.00565665 0.00568568 0.00565906 0.00569721 0.00575984 0.00582285 0.00588587 0.00596585 0.00618012 0.00626913 0.00635158 0.00642769 0.00632076 0.00635662 0.00633723 0.00632078 0.00631132 0.00625594 0.00620939 0.00598783 0.00576627 0.00553213 0.00503853 0.00469891 0.00420503 0.00371115 0.0032146 0.00259581 0.00241418 0.00213688 0.00185958 0.00158227 0.00124249 0.00122338 0.00111836 0.00101334 0.000908317 0.000751153 0.000715157 0.000603689 0.00049222 0.000380752 0.000206755