# vtk DataFile Version 2.0
track0
ASCII
DATASET POLYDATA
POINTS 15780 float
-1.001 -0.05 0.0011
-1.0008 -0.05 0.0011
-1.0006 -0.05 0.0011
-1.0004 -0.05 0.0011
-1.0002 -0.05 0.0011
-1 -0.05 0.0011
-0.9875 -0.05 0.0011
-0.975 -0.05 0.0011
-0.9625 -0.05 0.0011
-0.95 -0.05 0.0011
-0.9375 -0.05 0.00109999
-0.925 -0.05 0.00109999
-0.9125 -0.05 0.00109999
-0.9 -0.05 0.00109999
-0.8875 -0.05 0.00109999
-0.875 -0.05 0.00109999
-0.8625 -0.05 0.00109999
-0.85 -0.05 0.00109999
-0.8375 -0.05 0.00109998
-0.825 -0.0500001 0.00109998
-0.8125 -0.0500001 0.00109998
-0.8 -0.0500001 0.00109998
-0.7875 -0.0500001 0.00109998
-0.775 -0.0500001 0.00109998
-0.7625 -0.0500001 0.00109998
-0.75 -0.0500001 0.00109998
-0.7375 -0.0500001 0.00109997
-0.725 -0.0500001 0.00109997
-0.7125 -0.0500001 0.00109997
-0.7 -0.0500001 0.00109997
-0.6875 -0.0500001 0.00109997
-0.675 -0.0500001 0.00109997
-0.6625 -0.0500001 0.00109997
-0.65 -0.0500001 0.00109996
-0.6375 -0.0500001 0.00109996
-0.625 -0.0500001 0.00109996
-0.6125 -0.0500001 0.00109996
-0.6 -0.0500001 0.00109996
-0.5875 -0.0500001 0.00109996
-0.575 -0.0500001 0.00109996
-0.5625 -0.0500001 0.00109996
-0.55 -0.0500001 0.00109995
-0.5375 -0.0500001 0.00109995
-0.525 -0.0500001 0.00109995
-0.5125 -0.0500001 0.00109995
-0.5 -0.0500001 0.00109995
-0.4875 -0.0500001 0.00109995
-0.475 -0.0500001 0.00109995
-0.4625 -0.0500001 0.00109994
-0.45 -0.0500002 0.00109994
-0.4375 -0.0500002 0.00109994
-0.425 -0.0500002 0.00109994
-0.4125 -0.0500002 0.00109994
-0.4 -0.0500002 0.00109994
-0.3875 -0.0500002 0.00109994
-0.375 -0.0500002 0.00109994
-0.3625 -0.0500002 0.00109993
-0.35 -0.0500002 0.00109993
-0.3375 -0.0500002 0.00109993
-0.325 -0.0500002 0.00109993
-0.3125 -0.0500002 0.00109993
-0.3 -0.0500002 0.00109993
-0.2875 -0.0500002 0.00109993
-0.275 -0.0500002 0.00109993
-0.2625 -0.0500002 0.00109992
-0.25 -0.0500002 0.00109992
-0.2375 -0.0500002 0.00109992
-0.225 -0.0500002 0.00109992
-0.2125 -0.0500002 0.00109992
-0.2 -0.0500002 0.00109992
-0.1875 -0.0500002 0.00109992
-0.175 -0.0500002 0.00109992
-0.1625 -0.0500002 0.00109991
-0.15 -0.0500002 0.00109991
-0.1375 -0.0500002 0.00109991
-0.125 -0.0500002 0.00109991
-0.1125 -0.0500002 0.00109991
-0.1 -0.0500002 0.00109991
-0.0875 -0.0500002 0.00109991
-0.075 -0.0500002 0.00109991
-0.0625 -0.0500002 0.00109991
-0.05 -0.0500003 0.00109991
-0.0375 -0.0500003 0.0010999
-0.025 -0.0500003 0.0010999
-0.0125 -0.0500003 0.0010999
2.10607e-13 -0.0500003 0.0010999
0.0125 -0.0500003 0.0010999
0.025 -0.0500003 0.0010999
0.0375 -0.0500003 0.0010999
0.05 -0.0500003 0.0010999
0.0625 -0.0500003 0.0010999
0.075 -0.0500003 0.0010999
0.0875 -0.0500003 0.0010999
0.1 -0.0500003 0.00109989
0.1125 -0.0500003 0.00109989
0.125 -0.0500003 0.00109989
0.1375 -0.0500003 0.00109989
0.15 -0.0500003 0.00109989
0.1625 -0.0500003 0.00109989
0.175 -0.0500003 0.00109989
0.1875 -0.0500003 0.00109989
0.2 -0.0500003 0.00109989
0.2125 -0.0500003 0.00109989
0.225 -0.0500003 0.00109989
0.2375 -0.0500003 0.00109989
0.25 -0.0500003 0.00109989
0.2625 -0.0500003 0.00109988
0.275 -0.0500003 0.00109988
0.2875 -0.0500003 0.00109988
0.3 -0.0500003 0.00109988
0.3125 -0.0500003 0.00109988
0.325 -0.0500003 0.00109988
0.3375 -0.0500003 0.00109988
0.35 -0.0500003 0.00109988
0.3625 -0.0500003 0.00109988
0.375 -0.0500003 0.00109988
0.3875 -0.0500003 0.00109988
0.4 -0.0500004 0.00109988
0.4125 -0.0500004 0.00109988
0.425 -0.0500004 0.00109988
0.4375 -0.0500004 0.00109988
0.45 -0.0500004 0.00109988
0.4625 -0.0500004 0.00109988
0.475 -0.0500004 0.00109988
0.4875 -0.0500004 0.00109988
0.5 -0.0500004 0.00109988
0.5125 -0.0500004 0.00109988
0.525 -0.0500004 0.00109988
0.5375 -0.0500004 0.00109988
0.55 -0.0500004 0.00109988
0.5625 -0.0500004 0.00109988
0.575 -0.0500004 0.00109987
0.5875 -0.0500004 0.00109987
0.6 -0.0500004 0.00109987
0.6125 -0.0500004 0.00109987
0.625 -0.0500004 0.00109987
0.6375 -0.0500004 0.00109987
0.65 -0.0500004 0.00109987
0.6625 -0.0500004 0.00109987
0.675 -0.0500004 0.00109987
0.6875 -0.0500004 0.00109987
0.7 -0.0500004 0.00109987
0.7125 -0.0500004 0.00109987
0.725 -0.0500004 0.00109987
0.7375 -0.0500004 0.00109987
0.75 -0.0500004 0.00109987
0.7625 -0.0500004 0.00109987
0.775 -0.0500004 0.00109987
0.7875 -0.0500004 0.00109987
0.8 -0.0500004 0.00109987
0.8125 -0.0500004 0.00109987
0.825 -0.0500004 0.00109987
0.8375 -0.0500004 0.00109987
0.85 -0.0500004 0.00109987
0.8625 -0.0500004 0.00109987
0.875 -0.0500004 0.00109987
0.8875 -0.0500004 0.00109987
0.9 -0.0500004 0.00109987
0.9125 -0.0500005 0.00109988
0.925 -0.0500005 0.00109988
0.9375 -0.0500005 0.00109988
0.95 -0.0500005 0.00109988
0.9625 -0.0500005 0.00109988
0.975 -0.0500005 0.00109988
0.9875 -0.0500005 0.00109988
1 -0.0500005 0.00109988
1.0125 -0.0500005 0.00109988
1.025 -0.0500005 0.00109988
1.0375 -0.0500005 0.00109988
1.05 -0.0500005 0.00109988
1.0625 -0.0500005 0.00109988
1.075 -0.0500005 0.00109988
1.0875 -0.0500005 0.00109988
1.1 -0.0500005 0.00109988
1.1125 -0.0500005 0.00109988
1.125 -0.0500005 0.00109988
1.1375 -0.0500005 0.00109988
1.15 -0.0500005 0.00109988
1.1625 -0.0500005 0.00109988
1.175 -0.0500005 0.00109988
1.1875 -0.0500005 0.00109988
1.2 -0.0500005 0.00109988
1.2125 -0.0500005 0.00109988
1.225 -0.0500005 0.00109988
1.2375 -0.0500005 0.00109989
1.25 -0.0500005 0.00109989
1.2625 -0.0500005 0.00109989
1.275 -0.0500005 0.00109989
1.2875 -0.0500005 0.00109989
1.3 -0.0500005 0.00109989
1.3125 -0.0500005 0.00109989
1.325 -0.0500005 0.00109989
1.3375 -0.0500005 0.00109989
1.35 -0.0500005 0.00109989
1.3625 -0.0500005 0.00109989
1.375 -0.0500005 0.00109989
1.3875 -0.0500005 0.00109989
1.4 -0.0500005 0.00109989
1.4125 -0.0500005 0.00109989
1.425 -0.0500005 0.00109989
1.4375 -0.0500005 0.0010999
1.45 -0.0500005 0.0010999
1.4625 -0.0500005 0.0010999
1.475 -0.0500005 0.0010999
1.4875 -0.0500005 0.0010999
1.5 -0.0500006 0.0010999
1.5125 -0.0500006 0.0010999
1.525 -0.0500006 0.0010999
1.5375 -0.0500006 0.0010999
1.55 -0.0500006 0.0010999
1.5625 -0.0500006 0.0010999
1.575 -0.0500006 0.0010999
1.5875 -0.0500006 0.0010999
1.6 -0.0500006 0.0010999
1.6125 -0.0500006 0.00109991
1.625 -0.0500006 0.00109991
1.6375 -0.0500006 0.00109991
1.65 -0.0500006 0.00109991
1.6625 -0.0500006 0.00109991
1.675 -0.0500006 0.00109991
1.6875 -0.0500006 0.00109991
1.7 -0.0500006 0.00109991
1.7125 -0.0500006 0.00109991
1.725 -0.0500006 0.00109991
1.7375 -0.0500006 0.00109991
1.75 -0.0500006 0.00109991
1.7625 -0.0500006 0.00109992
1.775 -0.0500006 0.00109992
1.7875 -0.0500006 0.00109992
1.8 -0.0500006 0.00109992
1.8125 -0.0500006 0.00109992
1.825 -0.0500006 0.00109992
1.8375 -0.0500006 0.00109992
1.85 -0.0500006 0.00109992
1.8625 -0.0500006 0.00109992
1.875 -0.0500006 0.00109992
1.8875 -0.0500006 0.00109992
1.9 -0.0500006 0.00109992
1.9125 -0.0500006 0.00109993
1.925 -0.0500006 0.00109993
1.9375 -0.0500006 0.00109993
1.95 -0.0500006 0.00109993
1.9625 -0.0500006 0.00109993
1.975 -0.0500006 0.00109993
1.9875 -0.0500006 0.00109993
2 -0.0500006 0.00109993
2.0125 -0.0500006 0.00109993
2.025 -0.0500006 0.00109993
2.0375 -0.0500006 0.00109993
2.05 -0.0500006 0.00109993
2.0625 -0.0500006 0.00109994
2.075 -0.0500006 0.00109994
2.0875 -0.0500006 0.00109994
2.1 -0.0500006 0.00109994
2.1125 -0.0500006 0.00109994
2.125 -0.0500006 0.00109994
2.1375 -0.0500006 0.00109994
2.15 -0.0500006 0.00109994
2.1625 -0.0500006 0.00109994
2.175 -0.0500007 0.00109994
2.1875 -0.0500007 0.00109994
2.2 -0.0500007 0.00109994
2.2125 -0.0500007 0.00109994
2.225 -0.0500007 0.00109995
2.2375 -0.0500007 0.00109995
2.25 -0.0500007 0.00109995
2.2625 -0.0500007 0.00109995
2.275 -0.0500007 0.00109995
2.2875 -0.0500007 0.00109995
2.3 -0.0500007 0.00109995
2.3125 -0.0500007 0.00109995
2.325 -0.0500007 0.00109995
2.3375 -0.0500007 0.00109995
2.35 -0.0500007 0.00109995
2.3625 -0.0500007 0.00109995
2.375 -0.0500007 0.00109995
2.3875 -0.0500007 0.00109996
2.4 -0.0500007 0.00109996
2.4125 -0.0500007 0.00109996
2.425 -0.0500007 0.00109996
2.4375 -0.0500007 0.00109996
2.45 -0.0500007 0.00109996
2.4625 -0.0500007 0.00109996
2.475 -0.0500007 0.00109996
2.4875 -0.0500007 0.00109996
2.5 -0.0500007 0.00109996
2.5125 -0.0500007 0.00109996
2.525 -0.0500007 0.00109996
2.5375 -0.0500007 0.00109996
2.55 -0.0500007 0.00109996
2.5625 -0.0500007 0.00109997
2.575 -0.0500007 0.00109997
2.5875 -0.0500007 0.00109997
2.6 -0.0500007 0.00109997
2.6125 -0.0500007 0.00109997
2.625 -0.0500007 0.00109997
2.6375 -0.0500007 0.00109997
2.65 -0.0500007 0.00109997
2.6625 -0.0500007 0.00109997
2.675 -0.0500007 0.00109997
2.6875 -0.0500007 0.00109997
2.7 -0.0500007 0.00109997
2.7125 -0.0500007 0.00109997
2.725 -0.0500007 0.00109997
2.7375 -0.0500007 0.00109997
2.75 -0.0500007 0.00109997
2.7625 -0.0500007 0.00109998
2.775 -0.0500007 0.00109998
2.7875 -0.0500007 0.00109998
2.8 -0.0500007 0.00109998
2.8125 -0.0500007 0.00109998
2.825 -0.0500007 0.00109998
2.8375 -0.0500007 0.00109998
2.85 -0.0500007 0.00109998
2.8625 -0.0500008 0.00109998
2.875 -0.0500008 0.00109998
2.8875 -0.0500008 0.00109998
2.9 -0.0500008 0.00109998
2.9125 -0.0500008 0.00109998
2.925 -0.0500008 0.00109998
2.9375 -0.0500008 0.00109998
2.95 -0.0500008 0.00109998
2.9625 -0.0500008 0.00109998
2.975 -0.0500008 0.00109998
2.9875 -0.0500008 0.00109998
3 -0.0500008 0.00109998
3.0125 -0.0500008 0.00109999
3.025 -0.0500008 0.00109999
3.0375 -0.0500008 0.00109999
3.05 -0.0500008 0.00109999
3.0625 -0.0500008 0.00109999
3.075 -0.0500008 0.00109999
3.0875 -0.0500008 0.00109999
3.1 -0.0500008 0.00109999
3.1125 -0.0500008 0.00109999
3.125 -0.0500008 0.00109999
3.1375 -0.0500008 0.00109999
3.15 -0.0500008 0.00109999
3.1625 -0.0500008 0.00109999
3.175 -0.0500008 0.00109999
3.1875 -0.0500008 0.00109999
3.2 -0.0500008 0.00109999
3.2125 -0.0500008 0.00109999
3.225 -0.0500008 0.00109999
3.2375 -0.0500008 0.00109999
3.25 -0.0500008 0.00109999
3.2625 -0.0500008 0.00109999
3.275 -0.0500008 0.00109999
3.2875 -0.0500008 0.00109999
3.3 -0.0500008 0.00109999
3.3125 -0.0500008 0.00109999
3.325 -0.0500008 0.00109999
3.3375 -0.0500008 0.00109999
3.35 -0.0500008 0.0011
3.3625 -0.0500008 0.0011
[...]
POINT_DATA 15780
 FIELD attributes 1
U 3 15780 float
30.0002 	-7.01782e-06 	-6.30586e-06 30.0002 	-6.84333e-06 	-6.51453e-06 30.0002 	-6.66884e-06 	-6.72319e-06 30.0002 	-6.49436e-06 	-6.93186e-06 30.0002 	-6.31987e-06 	-7.14053e-06 30.0002 	-6.14538e-06 	-7.34919e-06 30.0004 	-1.2385e-05 	-1.261e-06 30.0004 	-1.2385e-05 	-1.261e-06 30.0004 	-1.2385e-05 	-1.261e-06 30.0004 	-1.2385e-05 	-1.261e-06 30.0002 	-7.04654e-08 	-6.84365e-06 30.0005 	-1.07089e-05 	-1.68706e-06 30.0005 	-1.07089e-05 	-1.68705e-06 30.0005 	-1.07089e-05 	-1.68705e-06 30.0005 	-1.07089e-05 	-1.68705e-06 30.0002 	-7.21409e-08 	-6.59606e-06 30.0005 	-9.95831e-06 	-2.08023e-06 30.0005 	-9.9583e-06 	-2.08023e-06 30.0005 	-9.95829e-06 	-2.08023e-06 30.0005 	-9.95828e-06 	-2.08023e-06 30.0003 	-4.59298e-06 	-6.24724e-06 30.0005 	-9.69153e-06 	-2.34896e-06 30.0005 	-9.69152e-06 	-2.34896e-06 30.0005 	-9.69151e-06 	-2.34896e-06 30.0005 	-9.6915e-06 	-2.34895e-06 30.0003 	-7.57222e-08 	-6.57613e-06 30.0005 	-9.52333e-06 	-2.49783e-06 30.0005 	-9.52332e-06 	-2.49783e-06 30.0005 	-9.52331e-06 	-2.49783e-06 30.0005 	-9.5233e-06 	-2.49783e-06 30.0003 	-7.74717e-08 	-6.52625e-06 30.0005 	-9.38696e-06 	-2.55608e-06 30.0005 	-9.38695e-06 	-2.55607e-06 30.0005 	-9.38694e-06 	-2.55607e-06 30.0005 	-9.38693e-06 	-2.55607e-06 30.0003 	-4.26677e-06 	-6.08527e-06 30.0005 	-9.27952e-06 	-2.5583e-06 30.0005 	-9.27951e-06 	-2.5583e-06 30.0005 	-9.2795e-06 	-2.5583e-06 30.0005 	-9.27949e-06 	-2.5583e-06 30.0003 	-4.19916e-06 	-5.97788e-06 30.0006 	-9.1873e-06 	-2.53044e-06 30.0006 	-9.18729e-06 	-2.53044e-06 30.0006 	-9.18728e-06 	-2.53043e-06 30.0006 	-9.18727e-06 	-2.53043e-06 30.0003 	-8.27504e-08 	-6.20125e-06 30.0006 	-9.09723e-06 	-2.48119e-06 30.0006 	-9.09722e-06 	-2.48119e-06 30.0006 	-9.09721e-06 	-2.48119e-06 30.0006 	-9.0972e-06 	-2.48118e-06 30.0003 	-8.45001e-08 	-6.05422e-06 30.0006 	-9.00477e-06 	-2.41362e-06 30.0006 	-9.00476e-06 	-2.41361e-06 30.0006 	-9.00475e-06 	-2.41361e-06 30.0006 	-9.00474e-06 	-2.41361e-06 30.0003 	-8.62559e-08 	-5.88781e-06 30.0006 	-8.90862e-06 	-2.32973e-06 30.0006 	-8.90861e-06 	-2.32973e-06 30.0006 	-8.90861e-06 	-2.32973e-06 30.0006 	-8.9086e-06 	-2.32972e-06 30.0003 	-3.93773e-06 	-5.36346e-06 30.0006 	-8.80858e-06 	-2.23275e-06 30.0006 	-8.80857e-06 	-2.23275e-06 30.0006 	-8.80857e-06 	-2.23275e-06 30.0006 	-8.80856e-06 	-2.23275e-06 30.0003 	-3.86394e-06 	-5.16475e-06 30.0006 	-8.70428e-06 	-2.12415e-06 30.0006 	-8.70428e-06 	-2.12415e-06 30.0006 	-8.70427e-06 	-2.12414e-06 30.0006 	-8.70426e-06 	-2.12414e-06 30.0003 	-9.15154e-08 	-5.28457e-06 30.0006 	-8.5961e-06 	-2.00508e-06 30.0006 	-8.5961e-06 	-2.00508e-06 30.0006 	-8.59609e-06 	-2.00508e-06 30.0006 	-8.59608e-06 	-2.00507e-06 30.0003 	-3.70433e-06 	-4.71939e-06 30.0007 	-8.48474e-06 	-1.87668e-06 30.0007 	-8.48473e-06 	-1.87668e-06 30.0007 	-8.48473e-06 	-1.87668e-06 30.0007 	-8.48472e-06 	-1.87667e-06 30.0003 	-3.61924e-06 	-4.47431e-06 30.0007 	-8.3714e-06 	-1.73884e-06 30.0007 	-8.37139e-06 	-1.73884e-06 30.0007 	-8.37139e-06 	-1.73884e-06 30.0007 	-8.37138e-06 	-1.73884e-06 30.0004 	-9.67673e-08 	-4.54319e-06 30.0007 	-8.25985e-06 	-1.59803e-06 30.0007 	-8.25984e-06 	-1.59803e-06 30.0007 	-8.25984e-06 	-1.59803e-06 30.0007 	-8.25983e-06 	-1.59803e-06 30.0004 	-9.85211e-08 	-4.27123e-06 30.0007 	-8.14786e-06 	-1.46323e-06 30.0007 	-8.14786e-06 	-1.46322e-06 30.0007 	-8.14785e-06 	-1.46322e-06 30.0007 	-8.14785e-06 	-1.46322e-06 30.0004 	-1.00269e-07 	-3.98926e-06 30.0007 	-8.01981e-06 	-1.32071e-06 30.0007 	-8.0198e-06 	-1.32071e-06 30.0007 	-8.0198e-06 	-1.32071e-06 30.0007 	-8.01979e-06 	-1.32071e-06 30.0004 	-3.25093e-06 	-3.37795e-06 30.0007 	-7.88102e-06 	-1.168e-06 30.0007 	-7.88102e-06 	-1.168e-06 30.0007 	-7.88102e-06 	-1.168e-06 30.0007 	-7.88101e-06 	-1.168e-06 30.0004 	-1.0372e-07 	-3.40288e-06 30.0007 	-7.74511e-06 	-1.00787e-06 30.0007 	-7.74511e-06 	-1.00787e-06 30.0007 	-7.74511e-06 	-1.00787e-06 30.0007 	-7.74511e-06 	-1.00787e-06 30.0004 	-1.05447e-07 	-3.10327e-06 30.0007 	-7.611e-06 	-8.41853e-07 30.0007 	-7.611e-06 	-8.41853e-07 30.0007 	-7.611e-06 	-8.41852e-07 30.0007 	-7.61099e-06 	-8.41852e-07 30.0004 	-2.93179e-06 	-2.48788e-06 30.0007 	-7.47524e-06 	-6.70202e-07 30.0007 	-7.47524e-06 	-6.70201e-07 30.0007 	-7.47524e-06 	-6.70201e-07 30.0007 	-7.47524e-06 	-6.70201e-07 30.0004 	-2.82533e-06 	-2.18313e-06 30.0007 	-7.34314e-06 	-4.97048e-07 30.0007 	-7.34314e-06 	-4.97048e-07 30.0007 	-7.34314e-06 	-4.97047e-07 30.0007 	-7.34314e-06 	-4.97047e-07 30.0004 	-1.10572e-07 	-2.17111e-06 30.0007 	-7.21537e-06 	-3.17319e-07 30.0007 	-7.21537e-06 	-3.17319e-07 30.0007 	-7.21536e-06 	-3.17319e-07 30.0007 	-7.21536e-06 	-3.17319e-07 30.0004 	-1.12262e-07 	-1.85337e-06 30.0007 	-7.09865e-06 	-1.38212e-07 30.0007 	-7.09865e-06 	-1.38212e-07 30.0007 	-7.09865e-06 	-1.38212e-07 30.0007 	-7.09865e-06 	-1.38212e-07 30.0004 	-1.13931e-07 	-1.54903e-06 30.0007 	-6.98533e-06 	4.08597e-08 30.0007 	-6.98533e-06 	4.08597e-08 30.0007 	-6.98533e-06 	4.08597e-08 30.0007 	-6.98533e-06 	4.08597e-08 30.0004 	-2.43893e-06 	-9.58507e-07 30.0007 	-6.87174e-06 	2.14672e-07 30.0007 	-6.87174e-06 	2.14672e-07 30.0007 	-6.87174e-06 	2.14672e-07 30.0007 	-6.87174e-06 	2.14672e-07 30.0004 	-2.34733e-06 	-6.82306e-07 30.0007 	-6.75363e-06 	3.90726e-07 30.0007 	-6.75363e-06 	3.90726e-07 30.0007 	-6.75363e-06 	3.90726e-07 30.0007 	-6.75364e-06 	3.90726e-07 30.0004 	-1.18942e-07 	-7.09778e-07 30.0007 	-6.64318e-06 	5.64384e-07 30.0007 	-6.64318e-06 	5.64385e-07 30.0007 	-6.64318e-06 	5.64385e-07 30.0007 	-6.64318e-06 	5.64385e-07 30.0004 	-2.16703e-06 	-1.45444e-07 30.0007 	-6.5362e-06 	7.27414e-07 30.0007 	-6.53621e-06 	7.27414e-07 30.0007 	-6.53621e-06 	7.27414e-07 30.0007 	-6.53621e-06 	7.27414e-07 30.0004 	-2.08136e-06 	1.13832e-07 30.0007 	-6.43091e-06 	8.78851e-07 30.0007 	-6.43091e-06 	8.78851e-07 30.0007 	-6.43091e-06 	8.78852e-07 30.0007 	-6.43092e-06 	8.78852e-07 30.0004 	-1.23887e-07 	7.0574e-08 30.0007 	-6.32338e-06 	1.01781e-06 30.0007 	-6.32338e-06 	1.01781e-06 30.0007 	-6.32338e-06 	1.01781e-06 30.0007 	-6.32338e-06 	1.01781e-06 30.0004 	-1.25486e-07 	3.15807e-07 30.0007 	-6.21702e-06 	1.14064e-06 30.0007 	-6.21702e-06 	1.14065e-06 30.0007 	-6.21702e-06 	1.14065e-06 30.0007 	-6.21703e-06 	1.14065e-06 30.0004 	-1.27073e-07 	5.45528e-07 30.0007 	-6.11575e-06 	1.25635e-06 30.0007 	-6.11576e-06 	1.25635e-06 30.0007 	-6.11576e-06 	1.25635e-06 30.0007 	-6.11576e-06 	1.25635e-06 30.0004 	-1.76456e-06 	1.03208e-06 30.0007 	-6.02302e-06 	1.3713e-06 30.0007 	-6.02303e-06 	1.3713e-06 30.0007 	-6.02303e-06 	1.3713e-06 30.0007 	-6.02303e-06 	1.3713e-06 30.0004 	-1.30174e-07 	9.36947e-07 30.0007 	-5.94335e-06 	1.48853e-06 30.0007 	-5.94336e-06 	1.48853e-06 30.0007 	-5.94336e-06 	1.48853e-06 30.0007 	-5.94336e-06 	1.48853e-06 30.0004 	-1.31673e-07 	1.10457e-06 30.0007 	-5.87213e-06 	1.59292e-06 30.0007 	-5.87214e-06 	1.59292e-06 30.0007 	-5.87214e-06 	1.59292e-06 30.0007 	-5.87214e-06 	1.59292e-06 30.0004 	-1.59166e-06 	1.53877e-06 30.0007 	-5.80251e-06 	1.67935e-06 30.0007 	-5.80251e-06 	1.67935e-06 30.0007 	-5.80252e-06 	1.67935e-06 30.0007 	-5.80252e-06 	1.67935e-06 30.0003 	-1.54443e-06 	1.67822e-06 30.0007 	-5.73444e-06 	1.75015e-06 30.0007 	-5.73445e-06 	1.75015e-06 30.0007 	-5.73445e-06 	1.75015e-06 30.0007 	-5.73446e-06 	1.75015e-06 30.0003 	-1.36352e-07 	1.52474e-06 30.0006 	-5.66928e-06 	1.80985e-06 30.0006 	-5.66928e-06 	1.80985e-06 30.0006 	-5.66929e-06 	1.80985e-06 30.0006 	-5.66929e-06 	1.80985e-06 30.0003 	-1.37888e-07 	1.63229e-06 30.0006 	-5.60918e-06 	1.85999e-06 30.0006 	-5.60918e-06 	1.85999e-06 30.0006 	-5.60919e-06 	1.85999e-06 30.0006 	-5.60919e-06 	1.85999e-06 30.0003 	-1.39339e-07 	1.72402e-06 30.0006 	-5.55485e-06 	1.90048e-06 30.0006 	-5.55485e-06 	1.90049e-06 30.0006 	-5.55486e-06 	1.90049e-06 30.0006 	-5.55486e-06 	1.90049e-06 30.0003 	-1.38904e-06 	2.07104e-06 30.0006 	-5.50598e-06 	1.93114e-06 30.0006 	-5.50598e-06 	1.93114e-06 30.0006 	-5.50599e-06 	1.93114e-06 30.0006 	-5.50599e-06 	1.93114e-06 30.0003 	-1.36198e-06 	2.13098e-06 30.0006 	-5.4622e-06 	1.95188e-06 30.0006 	-5.4622e-06 	1.95188e-06 30.0006 	-5.46221e-06 	1.95188e-06 30.0006 	-5.46221e-06 	1.95188e-06 30.0003 	-1.43298e-07 	1.90829e-06 30.0006 	-5.42336e-06 	1.96283e-06 30.0006 	-5.42337e-06 	1.96283e-06 30.0006 	-5.42337e-06 	1.96283e-06 30.0006 	-5.42338e-06 	1.96283e-06 30.0003 	-1.32355e-06 	2.20768e-06 30.0006 	-5.38936e-06 	1.96436e-06 30.0006 	-5.38936e-06 	1.96436e-06 30.0006 	-5.38937e-06 	1.96436e-06 30.0006 	-5.38937e-06 	1.96436e-06 30.0003 	-1.31175e-06 	2.22556e-06 30.0006 	-5.36013e-06 	1.95695e-06 30.0006 	-5.36014e-06 	1.95696e-06 30.0006 	-5.36014e-06 	1.95696e-06 30.0006 	-5.36015e-06 	1.95696e-06 30.0003 	-1.47082e-07 	1.96619e-06 30.0005 	-5.33557e-06 	1.94115e-06 30.0005 	-5.33558e-06 	1.94115e-06 30.0005 	-5.33558e-06 	1.94115e-06 30.0005 	-5.33558e-06 	1.94116e-06 30.0003 	-1.48296e-07 	1.9606e-06 30.0005 	-5.31553e-06 	1.91796e-06 30.0005 	-5.31554e-06 	1.91796e-06 30.0005 	-5.31554e-06 	1.91796e-06 30.0005 	-5.31554e-06 	1.91796e-06 30.0003 	-1.49488e-07 	1.94426e-06 30.0005 	-5.29989e-06 	1.88803e-06 30.0005 	-5.29989e-06 	1.88803e-06 30.0005 	-5.2999e-06 	1.88803e-06 30.0005 	-5.2999e-06 	1.88803e-06 30.0003 	-1.30909e-06 	2.17902e-06 30.0005 	-5.28849e-06 	1.85192e-06 30.0005 	-5.2885e-06 	1.85193e-06 30.0005 	-5.2885e-06 	1.85193e-06 30.0005 	-5.28851e-06 	1.85193e-06 30.0003 	-1.51785e-07 	1.88232e-06 30.0005 	-5.28116e-06 	1.8101e-06 30.0005 	-5.28116e-06 	1.8101e-06 30.0005 	-5.28117e-06 	1.8101e-06 30.0005 	-5.28117e-06 	1.8101e-06 30.0003 	-1.5288e-07 	1.8382e-06 30.0005 	-5.27767e-06 	1.76317e-06 30.0005 	-5.27768e-06 	1.76317e-06 30.0005 	-5.27768e-06 	1.76318e-06 30.0005 	-5.27768e-06 	1.76318e-06 30.0003 	-1.34825e-06 	2.0441e-06 30.0005 	-5.2778e-06 	1.71164e-06 30.0005 	-5.2778e-06 	1.71164e-06 30.0005 	-5.2778e-06 	1.71164e-06 30.0005 	-5.27781e-06 	1.71164e-06 30.0003 	-1.36829e-06 	1.98426e-06 30.0005 	-5.28132e-06 	1.656e-06 30.0005 	-5.28132e-06 	1.656e-06 30.0005 	-5.28132e-06 	1.656e-06 30.0005 	-5.28133e-06 	1.656e-06 30.0002 	-1.56032e-07 	1.66283e-06 30.0005 	-5.28808e-06 	1.59669e-06 30.0005 	-5.28808e-06 	1.59669e-06 30.0005 	-5.28808e-06 	1.59669e-06 30.0005 	-5.28809e-06 	1.59669e-06 30.0002 	-1.5707e-07 	1.59258e-06 30.0004 	-5.298e-06 	1.53416e-06 30.0004 	-5.298e-06 	1.53416e-06 30.0004 	-5.29801e-06 	1.53417e-06 30.0004 	-5.29801e-06 	1.53417e-06 30.0002 	-1.58132e-07 	1.51772e-06 30.0004 	-5.31091e-06 	1.4689e-06 30.0004 	-5.31091e-06 	1.4689e-06 30.0004 	-5.31092e-06 	1.4689e-06 30.0004 	-5.31092e-06 	1.4689e-06 30.0002 	-1.4799e-06 	1.69065e-06 30.0004 	-5.32642e-06 	1.40144e-06 30.0004 	-5.32642e-06 	1.40144e-06 30.0004 	-5.32642e-06 	1.40145e-06 30.0004 	-5.32643e-06 	1.40145e-06 30.0002 	-1.51441e-06 	1.60716e-06 30.0004 	-5.34427e-06 	1.33219e-06 30.0004 	-5.34428e-06 	1.33219e-06 30.0004 	-5.34428e-06 	1.3322e-06 30.0004 	-5.34428e-06 	1.3322e-06 30.0002 	-1.61337e-07 	1.27189e-06 30.0004 	-5.36427e-06 	1.26148e-06 30.0004 	-5.36427e-06 	1.26148e-06 30.0004 	-5.36428e-06 	1.26149e-06 30.0004 	-5.36428e-06 	1.26149e-06 30.0002 	-1.58973e-06 	1.43253e-06 30.0004 	-5.38607e-06 	1.18981e-06 30.0004 	-5.38607e-06 	1.18981e-06 30.0004 	-5.38607e-06 	1.18981e-06 30.0004 	-5.38607e-06 	1.18982e-06 30.0002 	-1.63021e-06 	1.34245e-06 30.0004 	-5.40966e-06 	1.11748e-06 30.0004 	-5.40966e-06 	1.11748e-06 30.0004 	-5.40966e-06 	1.11748e-06 30.0004 	-5.40966e-06 	1.11748e-06 30.0002 	-1.64327e-07 	1.00611e-06 30.0004 	-5.43478e-06 	1.04481e-06 30.0004 	-5.43478e-06 	1.04481e-06 30.0004 	-5.43478e-06 	1.04481e-06 30.0004 	-5.43478e-06 	1.04481e-06 30.0002 	-1.65268e-07 	9.15642e-07 30.0004 	-5.4604e-06 	9.72272e-07 30.0004 	-5.4604e-06 	9.72272e-07 30.0004 	-5.46041e-06 	9.72272e-07 30.0004 	-5.46041e-06 	9.72273e-07 30.0002 	-1.66163e-07 	8.2502e-07 30.0004 	-5.48641e-06 	8.99496e-07 30.0004 	-5.48641e-06 	8.99496e-07 30.0004 	-5.48641e-06 	8.99496e-07 30.0004 	-5.48642e-06 	8.99497e-07 30.0002 	-1.80707e-06 	9.75457e-07 30.0004 	-5.51316e-06 	8.25963e-07 30.0004 	-5.51316e-06 	8.25963e-07 30.0004 	-5.51316e-06 	8.25964e-07 30.0004 	-5.51316e-06 	8.25964e-07 30.0002 	-1.67841e-07 	6.43653e-07 30.0003 	-5.54288e-06 	7.52004e-07 30.0003 	-5.54288e-06 	7.52004e-07 30.0003 	-5.54289e-06 	7.52005e-07 30.0003 	-5.54289e-06 	7.52005e-07 30.0002 	-1.68665e-07 	5.5266e-07 30.0003 	-5.57734e-06 	6.77462e-07 30.0003 	-5.57734e-06 	6.77463e-07 30.0003 	-5.57735e-06 	6.77463e-07 30.0003 	-5.57735e-06 	6.77463e-07 30.0002 	-1.9554e-06 	7.01352e-07 30.0003 	-5.61417e-06 	6.04394e-07 30.0003 	-5.61417e-06 	6.04394e-07 30.0003 	-5.61417e-06 	6.04394e-07 30.0003 	-5.61417e-06 	6.04395e-07 30.0002 	-2.00759e-06 	6.11721e-07 30.0003 	-5.65028e-06 	5.34683e-07 30.0003 	-5.65028e-06 	5.34683e-07 30.0003 	-5.65028e-06 	5.34683e-07 30.0003 	-5.65028e-06 	5.34683e-07 30.0002 	-1.71137e-07 	2.80962e-07 30.0003 	-5.68138e-06 	4.67662e-07 30.0003 	-5.68138e-06 	4.67662e-07 30.0003 	-5.68138e-06 	4.67662e-07 30.0003 	-5.68138e-06 	4.67662e-07 30.0002 	-1.71961e-07 	1.97348e-07 30.0003 	-5.70978e-06 	4.03221e-07 30.0003 	-5.70978e-06 	4.03221e-07 30.0003 	-5.70979e-06 	4.03221e-07 30.0003 	-5.70979e-06 	4.03221e-07 30.0002 	-1.72752e-07 	1.16419e-07 30.0003 	-5.73793e-06 	3.39259e-07 30.0003 	-5.73793e-06 	3.39259e-07 30.0003 	-5.73794e-06 	3.39259e-07 30.0003 	-5.73794e-06 	3.39259e-07 30.0002 	-2.20084e-06 	2.74122e-07 30.0003 	-5.76589e-06 	2.75289e-07 30.0003 	-5.76589e-06 	2.75289e-07 30.0003 	-5.76589e-06 	2.75289e-07 30.0003 	-5.76589e-06 	2.75289e-07 30.0002 	-2.24776e-06 	1.9638e-07 30.0003 	-5.79266e-06 	2.10809e-07 30.0003 	-5.79266e-06 	2.10809e-07 30.0003 	-5.79266e-06 	2.10809e-07 30.0003 	-5.79266e-06 	2.10809e-07 30.0002 	-1.74915e-07 	-1.09125e-07 30.0003 	-5.8207e-06 	1.48808e-07 30.0003 	-5.8207e-06 	1.48808e-07 30.0003 	-5.8207e-06 	1.48808e-07 30.0003 	-5.8207e-06 	1.48808e-07 30.0002 	-2.34154e-06 	4.46991e-08 30.0003 	-5.84994e-06 	9.00141e-08 30.0003 	-5.84994e-06 	9.00141e-08 30.0003 	-5.84994e-06 	9.00141e-08 30.0003 	-5.84994e-06 	9.00141e-08 30.0002 	-2.38885e-06 	-2.90754e-08 30.0003 	-5.88035e-06 	3.48384e-08 30.0003 	-5.88035e-06 	3.48384e-08 30.0003 	-5.88035e-06 	3.48384e-08 30.0003 	-5.88035e-06 	3.48384e-08 30.0002 	-1.76912e-07 	-3.30749e-07 30.0003 	-5.91215e-06 	-1.70392e-08 30.0003 	-5.91215e-06 	-1.70392e-08 30.0003 	-5.91215e-06 	-1.70392e-08 30.0003 	-5.91215e-06 	-1.70392e-08 30.0002 	-1.77543e-07 	-4.01784e-07 30.0003 	-5.94525e-06 	-6.90158e-08 30.0003 	-5.94525e-06 	-6.90158e-08 30.0003 	-5.94525e-06 	-6.90158e-08 30.0003 	-5.94525e-06 	-6.90158e-08 30.0002 	-1.78138e-07 	-4.67056e-07 30.0003 	-5.97717e-06 	-1.23276e-07 30.0003 	-5.97717e-06 	-1.23276e-07 30.0003 	-5.97717e-06 	-1.23276e-07 30.0003 	-5.97717e-06 	-1.23276e-07 30.0002 	-2.58035e-06 	-3.01355e-07 30.0003 	-6.00492e-06 	-1.77922e-07 30.0003 	-6.00492e-06 	-1.77922e-07 30.0003 	-6.00492e-06 	-1.77922e-07 30.0003 	-6.00492e-06 	-1.77922e-07 30.0002 	-1.79295e-07 	-5.84867e-07 30.0003 	-6.02905e-06 	-2.29179e-07 30.0003 	-6.02905e-06 	-2.29179e-07 30.0003 	-6.02904e-06 	-2.29179e-07 30.0003 	-6.02904e-06 	-2.29179e-07 30.0002 	-1.79889e-07 	-6.42128e-07 30.0003 	-6.05226e-06 	-2.76143e-07 30.0003 	-6.05226e-06 	-2.76143e-07 30.0003 	-6.05226e-06 	-2.76143e-07 30.0003 	-6.05226e-06 	-2.76143e-07 30.0002 	-2.70838e-06 	-4.78958e-07 30.0003 	-6.07609e-06 	-3.19625e-07 30.0003 	-6.07609e-06 	-3.19625e-07 30.0003 	-6.07609e-06 	-3.19625e-07 30.0003 	-6.07609e-06 	-3.19625e-07 30.0002 	-2.7494e-06 	-5.34003e-07 30.0003 	-6.10038e-06 	-3.61154e-07 30.0003 	-6.10038e-06 	-3.61154e-07 30.0003 	-6.10038e-06 	-3.61154e-07 30.0003 	-6.10038e-06 	-3.61154e-07 30.0002 	-1.81602e-07 	-8.03767e-07 30.0003 	-6.1244e-06 	-4.01351e-07 30.0003 	-6.1244e-06 	-4.01351e-07 30.0003 	-6.1244e-06 	-4.01351e-07 30.0003 	-6.1244e-06 	-4.01351e-07 30.0001 	-1.82137e-07 	-8.53085e-07 30.0003 	-6.14777e-06 	-4.40346e-07 30.0003 	-6.14777e-06 	-4.40346e-07 30.0003 	-6.14777e-06 	-4.40346e-07 30.0003 	-6.14777e-06 	-4.40346e-07 30.0001 	-1.82653e-07 	-9.00295e-07 30.0003 	-6.17039e-06 	-4.7797e-07 30.0003 	-6.17039e-06 	-4.7797e-07 30.0003 	-6.17038e-06 	-4.7797e-07 30.0003 	-6.17038e-06 	-4.7797e-07 30.0001 	-2.90886e-06 	-7.31437e-07 30.0003 	-6.19214e-06 	-5.14189e-07 30.0003 	-6.19214e-06 	-5.14189e-07 30.0003 	-6.19214e-06 	-5.14188e-07 30.0003 	-6.19214e-06 	-5.14188e-07 30.0001 	-2.94672e-06 	-7.75564e-07 30.0003 	-6.2131e-06 	-5.4881e-07 30.0003 	-6.2131e-06 	-5.4881e-07 30.0003 	-6.2131e-06 	-5.4881e-07 30.0003 	-6.2131e-06 	-5.48809e-07 30.0001 	-1.84142e-07 	-1.0295e-06 30.0003 	-6.23322e-06 	-5.82024e-07 30.0003 	-6.23322e-06 	-5.82024e-07 30.0003 	-6.23322e-06 	-5.82024e-07 30.0003 	-6.23322e-06 	-5.82024e-07 30.0001 	-3.01971e-06 	-8.57454e-07 30.0003 	-6.25246e-06 	-6.1387e-07 30.0003 	-6.25245e-06 	-6.1387e-07 30.0003 	-6.25245e-06 	-6.1387e-07 30.0003 	-6.25245e-06 	-6.1387e-07 30.0001 	-3.0548e-06 	-8.95463e-07 30.0003 	-6.27093e-06 	-6.44399e-07 30.0003 	-6.27093e-06 	-6.44398e-07 30.0003 	-6.27092e-06 	-6.44398e-07 30.0003 	-6.27092e-06 	-6.44398e-07 30.0001 	-1.85538e-07 	-1.14082e-06 30.0003 	-6.28872e-06 	-6.73603e-07 30.0003 	-6.28872e-06 	-6.73602e-07 30.0003 	-6.28872e-06 	-6.73602e-07 30.0003 	-6.28872e-06 	-6.73602e-07 30.0001 	-1.85993e-07 	-1.17458e-06 30.0003 	-6.30571e-06 	-7.01422e-07 30.0003 	-6.30571e-06 	-7.01422e-07 30.0003 	-6.30571e-06 	-7.01422e-07 30.0003 	-6.30571e-06 	-7.01422e-07 30.0001 	-1.86429e-07 	-1.20666e-06 30.0003 	-6.32176e-06 	-7.27857e-07 30.0003 	-6.32176e-06 	-7.27856e-07 30.0003 	-6.32176e-06 	-7.27856e-07 30.0003 	-6.32176e-06 	-7.27856e-07 30.0001 	-3.18623e-06 	-1.03099e-06 30.0003 	-6.337e-06 	-7.5297e-07 30.0003 	-6.33699e-06 	-7.5297e-07 30.0003 	-6.33699e-06 	-7.5297e-07 30.0003 	-6.33699e-06 	-7.52969e-07 30.0001 	-1.87267e-07 	-1.26595e-06 30.0003 	-6.3515e-06 	-7.7694e-07 30.0003 	-6.3515e-06 	-7.7694e-07 30.0003 	-6.3515e-06 	-7.7694e-07 30.0003 	-6.35149e-06 	-7.7694e-07 30.0001 	-1.87677e-07 	-1.2933e-06 30.0003 	-6.36528e-06 	-7.99813e-07 30.0003 	-6.36528e-06 	-7.99813e-07 30.0003 	-6.36527e-06 	-7.99812e-07 30.0003 	-6.36527e-06 	-7.99812e-07 30.0001 	-3.2756e-06 	-1.11604e-06 30.0003 	-6.37832e-06 	-8.21544e-07 30.0003 	-6.37832e-06 	-8.21544e-07 30.0003 	-6.37832e-06 	-8.21544e-07 30.0003 	-6.37832e-06 	-8.21543e-07 30.0001 	-3.30371e-06 	-1.14152e-06 30.0003 	-6.39066e-06 	-8.41982e-07 30.0003 	-6.39066e-06 	-8.41982e-07 30.0003 	-6.39066e-06 	-8.41982e-07 30.0003 	-6.39066e-06 	-8.41981e-07 30.0001 	-1.88849e-07 	-1.36685e-06 30.0003 	-6.40227e-06 	-8.6138e-07 30.0003 	-6.40227e-06 	-8.61379e-07 30.0003 	-6.40227e-06 	-8.61379e-07 30.0003 	-6.40227e-06 	-8.61379e-07 30.0001 	-1.89227e-07 	-1.38873e-06 30.0003 	-6.41318e-06 	-8.79821e-07 30.0003 	-6.41318e-06 	-8.7982e-07 30.0003 	-6.41318e-06 	-8.7982e-07 30.0003 	-6.41318e-06 	-8.7982e-07 30.0001 	-1.89595e-07 	-1.40938e-06 30.0003 	-6.4234e-06 	-8.97309e-07 30.0003 	-6.4234e-06 	-8.97309e-07 30.0003 	-6.4234e-06 	-8.97308e-07 30.0003 	-6.42339e-06 	-8.97308e-07 30.0001 	-3.40801e-06 	-1.23052e-06 30.0003 	-6.43294e-06 	-9.13897e-07 30.0003 	-6.43294e-06 	-9.13897e-07 30.0003 	-6.43294e-06 	-9.13896e-07 30.0003 	-6.43294e-06 	-9.13896e-07 30.0001 	-3.43214e-06 	-1.24985e-06 30.0003 	-6.44188e-06 	-9.29585e-07 30.0003 	-6.44188e-06 	-9.29585e-07 30.0003 	-6.44188e-06 	-9.29584e-07 30.0003 	-6.44188e-06 	-9.29584e-07 30.0001 	-1.90686e-07 	-1.46455e-06 30.0003 	-6.45019e-06 	-9.44437e-07 30.0003 	-6.45018e-06 	-9.44436e-07 30.0003 	-6.45018e-06 	-9.44436e-07 30.0003 	-6.45018e-06 	-9.44436e-07 30.0001 	-3.47824e-06 	-1.28534e-06 30.0003 	-6.45784e-06 	-9.58444e-07 30.0003 	-6.45784e-06 	-9.58444e-07 30.0003 	-6.45784e-06 	-9.58444e-07 30.0003 	-6.45783e-06 	-9.58443e-07 30.0001 	-3.50029e-06 	-1.30161e-06 30.0003 	-6.46491e-06 	-9.7174e-07 30.0003 	-6.46491e-06 	-9.71739e-07 30.0003 	-6.46491e-06 	-9.71739e-07 30.0003 	-6.4649e-06 	-9.71738e-07 30.0001 	-1