# vtk DataFile Version 2.0
track0
ASCII
DATASET POLYDATA
POINTS 15780 float
-1.001 -0.05 0.0011
-1.0008 -0.05 0.0011
-1.0006 -0.05 0.0011
-1.0004 -0.05 0.0011
-1.0002 -0.05 0.0011
-1 -0.05 0.0011
-0.9875 -0.05 0.0011
-0.975 -0.05 0.0011
-0.9625 -0.05 0.0011
-0.95 -0.05 0.0011
-0.9375 -0.05 0.00109999
-0.925 -0.05 0.00109999
-0.9125 -0.05 0.00109999
-0.9 -0.05 0.00109999
-0.8875 -0.05 0.00109999
-0.875 -0.05 0.00109999
-0.8625 -0.05 0.00109999
-0.85 -0.05 0.00109999
-0.8375 -0.05 0.00109998
-0.825 -0.0500001 0.00109998
-0.8125 -0.0500001 0.00109998
-0.8 -0.0500001 0.00109998
-0.7875 -0.0500001 0.00109998
-0.775 -0.0500001 0.00109998
-0.7625 -0.0500001 0.00109998
-0.75 -0.0500001 0.00109998
-0.7375 -0.0500001 0.00109997
-0.725 -0.0500001 0.00109997
-0.7125 -0.0500001 0.00109997
-0.7 -0.0500001 0.00109997
-0.6875 -0.0500001 0.00109997
-0.675 -0.0500001 0.00109997
-0.6625 -0.0500001 0.00109997
-0.65 -0.0500001 0.00109996
-0.6375 -0.0500001 0.00109996
-0.625 -0.0500001 0.00109996
-0.6125 -0.0500001 0.00109996
-0.6 -0.0500001 0.00109996
-0.5875 -0.0500001 0.00109996
-0.575 -0.0500001 0.00109996
-0.5625 -0.0500001 0.00109996
-0.55 -0.0500001 0.00109995
-0.5375 -0.0500001 0.00109995
-0.525 -0.0500001 0.00109995
-0.5125 -0.0500001 0.00109995
-0.5 -0.0500001 0.00109995
-0.4875 -0.0500001 0.00109995
-0.475 -0.0500001 0.00109995
-0.4625 -0.0500001 0.00109994
-0.45 -0.0500002 0.00109994
-0.4375 -0.0500002 0.00109994
-0.425 -0.0500002 0.00109994
-0.4125 -0.0500002 0.00109994
-0.4 -0.0500002 0.00109994
-0.3875 -0.0500002 0.00109994
-0.375 -0.0500002 0.00109994
-0.3625 -0.0500002 0.00109993
-0.35 -0.0500002 0.00109993
-0.3375 -0.0500002 0.00109993
-0.325 -0.0500002 0.00109993
-0.3125 -0.0500002 0.00109993
-0.3 -0.0500002 0.00109993
-0.2875 -0.0500002 0.00109993
-0.275 -0.0500002 0.00109993
-0.2625 -0.0500002 0.00109992
-0.25 -0.0500002 0.00109992
-0.2375 -0.0500002 0.00109992
-0.225 -0.0500002 0.00109992
-0.2125 -0.0500002 0.00109992
-0.2 -0.0500002 0.00109992
-0.1875 -0.0500002 0.00109992
-0.175 -0.0500002 0.00109992
-0.1625 -0.0500002 0.00109991
-0.15 -0.0500002 0.00109991
-0.1375 -0.0500002 0.00109991
-0.125 -0.0500002 0.00109991
-0.1125 -0.0500002 0.00109991
-0.1 -0.0500002 0.00109991
-0.0875 -0.0500002 0.00109991
-0.075 -0.0500002 0.00109991
-0.0625 -0.0500002 0.00109991
-0.05 -0.0500003 0.00109991
-0.0375 -0.0500003 0.0010999
-0.025 -0.0500003 0.0010999
-0.0125 -0.0500003 0.0010999
2.10607e-13 -0.0500003 0.0010999
0.0125 -0.0500003 0.0010999
0.025 -0.0500003 0.0010999
0.0375 -0.0500003 0.0010999
0.05 -0.0500003 0.0010999
0.0625 -0.0500003 0.0010999
0.075 -0.0500003 0.0010999
0.0875 -0.0500003 0.0010999
0.1 -0.0500003 0.00109989
0.1125 -0.0500003 0.00109989
0.125 -0.0500003 0.00109989
0.1375 -0.0500003 0.00109989
0.15 -0.0500003 0.00109989
0.1625 -0.0500003 0.00109989
0.175 -0.0500003 0.00109989
0.1875 -0.0500003 0.00109989
0.2 -0.0500003 0.00109989
0.2125 -0.0500003 0.00109989
0.225 -0.0500003 0.00109989
0.2375 -0.0500003 0.00109989
0.25 -0.0500003 0.00109989
0.2625 -0.0500003 0.00109988
0.275 -0.0500003 0.00109988
0.2875 -0.0500003 0.00109988
0.3 -0.0500003 0.00109988
0.3125 -0.0500003 0.00109988
0.325 -0.0500003 0.00109988
0.3375 -0.0500003 0.00109988
0.35 -0.0500003 0.00109988
0.3625 -0.0500003 0.00109988
0.375 -0.0500003 0.00109988
0.3875 -0.0500003 0.00109988
0.4 -0.0500004 0.00109988
0.4125 -0.0500004 0.00109988
0.425 -0.0500004 0.00109988
0.4375 -0.0500004 0.00109988
0.45 -0.0500004 0.00109988
0.4625 -0.0500004 0.00109988
0.475 -0.0500004 0.00109988
0.4875 -0.0500004 0.00109988
0.5 -0.0500004 0.00109988
0.5125 -0.0500004 0.00109988
0.525 -0.0500004 0.00109988
0.5375 -0.0500004 0.00109988
0.55 -0.0500004 0.00109988
0.5625 -0.0500004 0.00109988
0.575 -0.0500004 0.00109987
0.5875 -0.0500004 0.00109987
0.6 -0.0500004 0.00109987
0.6125 -0.0500004 0.00109987
0.625 -0.0500004 0.00109987
0.6375 -0.0500004 0.00109987
0.65 -0.0500004 0.00109987
0.6625 -0.0500004 0.00109987
0.675 -0.0500004 0.00109987
0.6875 -0.0500004 0.00109987
0.7 -0.0500004 0.00109987
0.7125 -0.0500004 0.00109987
0.725 -0.0500004 0.00109987
0.7375 -0.0500004 0.00109987
0.75 -0.0500004 0.00109987
0.7625 -0.0500004 0.00109987
0.775 -0.0500004 0.00109987
0.7875 -0.0500004 0.00109987
0.8 -0.0500004 0.00109987
0.8125 -0.0500004 0.00109987
0.825 -0.0500004 0.00109987
0.8375 -0.0500004 0.00109987
0.85 -0.0500004 0.00109987
0.8625 -0.0500004 0.00109987
0.875 -0.0500004 0.00109987
0.8875 -0.0500004 0.00109987
0.9 -0.0500004 0.00109987
0.9125 -0.0500005 0.00109988
0.925 -0.0500005 0.00109988
0.9375 -0.0500005 0.00109988
0.95 -0.0500005 0.00109988
0.9625 -0.0500005 0.00109988
0.975 -0.0500005 0.00109988
0.9875 -0.0500005 0.00109988
1 -0.0500005 0.00109988
1.0125 -0.0500005 0.00109988
1.025 -0.0500005 0.00109988
1.0375 -0.0500005 0.00109988
1.05 -0.0500005 0.00109988
1.0625 -0.0500005 0.00109988
1.075 -0.0500005 0.00109988
1.0875 -0.0500005 0.00109988
1.1 -0.0500005 0.00109988
1.1125 -0.0500005 0.00109988
1.125 -0.0500005 0.00109988
1.1375 -0.0500005 0.00109988
1.15 -0.0500005 0.00109988
1.1625 -0.0500005 0.00109988
1.175 -0.0500005 0.00109988
1.1875 -0.0500005 0.00109988
1.2 -0.0500005 0.00109988
1.2125 -0.0500005 0.00109988
1.225 -0.0500005 0.00109988
1.2375 -0.0500005 0.00109989
1.25 -0.0500005 0.00109989
1.2625 -0.0500005 0.00109989
1.275 -0.0500005 0.00109989
1.2875 -0.0500005 0.00109989
1.3 -0.0500005 0.00109989
1.3125 -0.0500005 0.00109989
1.325 -0.0500005 0.00109989
1.3375 -0.0500005 0.00109989
1.35 -0.0500005 0.00109989
1.3625 -0.0500005 0.00109989
1.375 -0.0500005 0.00109989
1.3875 -0.0500005 0.00109989
1.4 -0.0500005 0.00109989
1.4125 -0.0500005 0.00109989
1.425 -0.0500005 0.00109989
1.4375 -0.0500005 0.0010999
1.45 -0.0500005 0.0010999
1.4625 -0.0500005 0.0010999
1.475 -0.0500005 0.0010999
1.4875 -0.0500005 0.0010999
1.5 -0.0500006 0.0010999
1.5125 -0.0500006 0.0010999
1.525 -0.0500006 0.0010999
1.5375 -0.0500006 0.0010999
1.55 -0.0500006 0.0010999
1.5625 -0.0500006 0.0010999
1.575 -0.0500006 0.0010999
1.5875 -0.0500006 0.0010999
1.6 -0.0500006 0.0010999
1.6125 -0.0500006 0.00109991
1.625 -0.0500006 0.00109991
1.6375 -0.0500006 0.00109991
1.65 -0.0500006 0.00109991
1.6625 -0.0500006 0.00109991
1.675 -0.0500006 0.00109991
1.6875 -0.0500006 0.00109991
1.7 -0.0500006 0.00109991
1.7125 -0.0500006 0.00109991
1.725 -0.0500006 0.00109991
1.7375 -0.0500006 0.00109991
1.75 -0.0500006 0.00109991
1.7625 -0.0500006 0.00109992
1.775 -0.0500006 0.00109992
1.7875 -0.0500006 0.00109992
1.8 -0.0500006 0.00109992
1.8125 -0.0500006 0.00109992
1.825 -0.0500006 0.00109992
1.8375 -0.0500006 0.00109992
1.85 -0.0500006 0.00109992
1.8625 -0.0500006 0.00109992
1.875 -0.0500006 0.00109992
1.8875 -0.0500006 0.00109992
1.9 -0.0500006 0.00109992
1.9125 -0.0500006 0.00109993
1.925 -0.0500006 0.00109993
1.9375 -0.0500006 0.00109993
1.95 -0.0500006 0.00109993
1.9625 -0.0500006 0.00109993
1.975 -0.0500006 0.00109993
1.9875 -0.0500006 0.00109993
2 -0.0500006 0.00109993
2.0125 -0.0500006 0.00109993
2.025 -0.0500006 0.00109993
2.0375 -0.0500006 0.00109993
2.05 -0.0500006 0.00109993
2.0625 -0.0500006 0.00109993
2.075 -0.0500006 0.00109994
2.0875 -0.0500006 0.00109994
2.1 -0.0500006 0.00109994
2.1125 -0.0500006 0.00109994
2.125 -0.0500006 0.00109994
2.1375 -0.0500006 0.00109994
2.15 -0.0500006 0.00109994
2.1625 -0.0500006 0.00109994
2.175 -0.0500007 0.00109994
2.1875 -0.0500007 0.00109994
2.2 -0.0500007 0.00109994
2.2125 -0.0500007 0.00109994
2.225 -0.0500007 0.00109995
2.2375 -0.0500007 0.00109995
2.25 -0.0500007 0.00109995
2.2625 -0.0500007 0.00109995
2.275 -0.0500007 0.00109995
2.2875 -0.0500007 0.00109995
2.3 -0.0500007 0.00109995
2.3125 -0.0500007 0.00109995
2.325 -0.0500007 0.00109995
2.3375 -0.0500007 0.00109995
2.35 -0.0500007 0.00109995
2.3625 -0.0500007 0.00109995
2.375 -0.0500007 0.00109995
2.3875 -0.0500007 0.00109996
2.4 -0.0500007 0.00109996
2.4125 -0.0500007 0.00109996
2.425 -0.0500007 0.00109996
2.4375 -0.0500007 0.00109996
2.45 -0.0500007 0.00109996
2.4625 -0.0500007 0.00109996
2.475 -0.0500007 0.00109996
2.4875 -0.0500007 0.00109996
2.5 -0.0500007 0.00109996
2.5125 -0.0500007 0.00109996
2.525 -0.0500007 0.00109996
2.5375 -0.0500007 0.00109996
2.55 -0.0500007 0.00109996
2.5625 -0.0500007 0.00109997
2.575 -0.0500007 0.00109997
2.5875 -0.0500007 0.00109997
2.6 -0.0500007 0.00109997
2.6125 -0.0500007 0.00109997
2.625 -0.0500007 0.00109997
2.6375 -0.0500007 0.00109997
2.65 -0.0500007 0.00109997
2.6625 -0.0500007 0.00109997
2.675 -0.0500007 0.00109997
2.6875 -0.0500007 0.00109997
2.7 -0.0500007 0.00109997
2.7125 -0.0500007 0.00109997
2.725 -0.0500007 0.00109997
2.7375 -0.0500007 0.00109997
2.75 -0.0500007 0.00109997
2.7625 -0.0500007 0.00109998
2.775 -0.0500007 0.00109998
2.7875 -0.0500007 0.00109998
2.8 -0.0500007 0.00109998
2.8125 -0.0500007 0.00109998
2.825 -0.0500007 0.00109998
2.8375 -0.0500007 0.00109998
2.85 -0.0500007 0.00109998
2.8625 -0.0500008 0.00109998
2.875 -0.0500008 0.00109998
2.8875 -0.0500008 0.00109998
2.9 -0.0500008 0.00109998
2.9125 -0.0500008 0.00109998
2.925 -0.0500008 0.00109998
2.9375 -0.0500008 0.00109998
2.95 -0.0500008 0.00109998
2.9625 -0.0500008 0.00109998
2.975 -0.0500008 0.00109998
2.9875 -0.0500008 0.00109998
3 -0.0500008 0.00109998
3.0125 -0.0500008 0.00109999
3.025 -0.0500008 0.00109999
3.0375 -0.0500008 0.00109999
3.05 -0.0500008 0.00109999
3.0625 -0.0500008 0.00109999
3.075 -0.0500008 0.00109999
3.0875 -0.0500008 0.00109999
3.1 -0.0500008 0.00109999
3.1125 -0.0500008 0.00109999
3.125 -0.0500008 0.00109999
3.1375 -0.0500008 0.00109999
3.15 -0.0500008 0.00109999
3.1625 -0.0500008 0.00109999
3.175 -0.0500008 0.00109999
3.1875 -0.0500008 0.00109999
3.2 -0.0500008 0.00109999
3.2125 -0.0500008 0.00109999
3.225 -0.0500008 0.00109999
3.2375 -0.0500008 0.00109999
3.25 -0.0500008 0.00109999
3.2625 -0.0500008 0.00109999
3.275 -0.0500008 0.00109999
3.2875 -0.0500008 0.00109999
3.3 -0.0500008 0.00109999
3.3125 -0.0500008 0.00109999
3.325 -0.0500008 0.00109999
3.3375 -0.0500008 0.00109999
3.35 -0.0500008 0.0011
3.3625 -0.0500008 0.0011
[...]
POINT_DATA 15780
 FIELD attributes 1
U 3 15780 float
30.0002 	-7.01794e-06 	-6.30587e-06 30.0002 	-6.84345e-06 	-6.51453e-06 30.0002 	-6.66896e-06 	-6.7232e-06 30.0002 	-6.49447e-06 	-6.93187e-06 30.0002 	-6.31998e-06 	-7.14053e-06 30.0002 	-6.14549e-06 	-7.3492e-06 30.0004 	-1.23852e-05 	-1.26102e-06 30.0004 	-1.23852e-05 	-1.26102e-06 30.0004 	-1.23852e-05 	-1.26102e-06 30.0004 	-1.23852e-05 	-1.26102e-06 30.0002 	-7.05726e-08 	-6.84367e-06 30.0005 	-1.07092e-05 	-1.68708e-06 30.0005 	-1.07092e-05 	-1.68708e-06 30.0005 	-1.07091e-05 	-1.68708e-06 30.0005 	-1.07091e-05 	-1.68708e-06 30.0002 	-7.22513e-08 	-6.59608e-06 30.0005 	-9.95859e-06 	-2.08026e-06 30.0005 	-9.95858e-06 	-2.08026e-06 30.0005 	-9.95857e-06 	-2.08026e-06 30.0005 	-9.95856e-06 	-2.08025e-06 30.0003 	-4.59313e-06 	-6.24726e-06 30.0005 	-9.69183e-06 	-2.34899e-06 30.0005 	-9.69182e-06 	-2.34898e-06 30.0005 	-9.69181e-06 	-2.34898e-06 30.0005 	-9.6918e-06 	-2.34898e-06 30.0003 	-7.58425e-08 	-6.57616e-06 30.0005 	-9.52364e-06 	-2.49786e-06 30.0005 	-9.52363e-06 	-2.49786e-06 30.0005 	-9.52362e-06 	-2.49785e-06 30.0005 	-9.52361e-06 	-2.49785e-06 30.0003 	-7.7598e-08 	-6.52627e-06 30.0005 	-9.38729e-06 	-2.5561e-06 30.0005 	-9.38728e-06 	-2.55609e-06 30.0005 	-9.38727e-06 	-2.55609e-06 30.0005 	-9.38726e-06 	-2.55609e-06 30.0003 	-4.26696e-06 	-6.08529e-06 30.0005 	-9.27989e-06 	-2.55832e-06 30.0005 	-9.27988e-06 	-2.55832e-06 30.0005 	-9.27987e-06 	-2.55831e-06 30.0005 	-9.27986e-06 	-2.55831e-06 30.0003 	-4.19936e-06 	-5.97789e-06 30.0006 	-9.18769e-06 	-2.53045e-06 30.0006 	-9.18768e-06 	-2.53045e-06 30.0006 	-9.18767e-06 	-2.53045e-06 30.0006 	-9.18766e-06 	-2.53044e-06 30.0003 	-8.29041e-08 	-6.20128e-06 30.0006 	-9.09762e-06 	-2.4812e-06 30.0006 	-9.09762e-06 	-2.4812e-06 30.0006 	-9.09761e-06 	-2.4812e-06 30.0006 	-9.0976e-06 	-2.4812e-06 30.0003 	-8.46596e-08 	-6.05424e-06 30.0006 	-9.00518e-06 	-2.41363e-06 30.0006 	-9.00517e-06 	-2.41363e-06 30.0006 	-9.00517e-06 	-2.41362e-06 30.0006 	-9.00516e-06 	-2.41362e-06 30.0003 	-8.64204e-08 	-5.88783e-06 30.0006 	-8.90905e-06 	-2.32974e-06 30.0006 	-8.90904e-06 	-2.32974e-06 30.0006 	-8.90904e-06 	-2.32973e-06 30.0006 	-8.90903e-06 	-2.32973e-06 30.0003 	-3.93796e-06 	-5.36347e-06 30.0006 	-8.80902e-06 	-2.23276e-06 30.0006 	-8.80901e-06 	-2.23276e-06 30.0006 	-8.80901e-06 	-2.23275e-06 30.0006 	-8.809e-06 	-2.23275e-06 30.0003 	-3.86417e-06 	-5.16476e-06 30.0006 	-8.70474e-06 	-2.12415e-06 30.0006 	-8.70473e-06 	-2.12415e-06 30.0006 	-8.70472e-06 	-2.12415e-06 30.0006 	-8.70472e-06 	-2.12415e-06 30.0003 	-9.16972e-08 	-5.28458e-06 30.0006 	-8.59656e-06 	-2.00509e-06 30.0006 	-8.59655e-06 	-2.00508e-06 30.0006 	-8.59655e-06 	-2.00508e-06 30.0006 	-8.59654e-06 	-2.00508e-06 30.0003 	-3.70457e-06 	-4.71939e-06 30.0007 	-8.4852e-06 	-1.87669e-06 30.0007 	-8.48519e-06 	-1.87669e-06 30.0007 	-8.48519e-06 	-1.87668e-06 30.0007 	-8.48518e-06 	-1.87668e-06 30.0003 	-3.61948e-06 	-4.47431e-06 30.0007 	-8.37186e-06 	-1.73885e-06 30.0007 	-8.37186e-06 	-1.73885e-06 30.0007 	-8.37185e-06 	-1.73884e-06 30.0007 	-8.37185e-06 	-1.73884e-06 30.0004 	-9.69571e-08 	-4.5432e-06 30.0007 	-8.26031e-06 	-1.59805e-06 30.0007 	-8.26031e-06 	-1.59805e-06 30.0007 	-8.2603e-06 	-1.59805e-06 30.0007 	-8.2603e-06 	-1.59805e-06 30.0004 	-9.87098e-08 	-4.27125e-06 30.0007 	-8.14834e-06 	-1.46325e-06 30.0007 	-8.14833e-06 	-1.46325e-06 30.0007 	-8.14833e-06 	-1.46325e-06 30.0007 	-8.14832e-06 	-1.46325e-06 30.0004 	-1.00459e-07 	-3.98928e-06 30.0007 	-8.02029e-06 	-1.32074e-06 30.0007 	-8.02029e-06 	-1.32074e-06 30.0007 	-8.02028e-06 	-1.32074e-06 30.0007 	-8.02028e-06 	-1.32074e-06 30.0004 	-3.25118e-06 	-3.37796e-06 30.0007 	-7.88152e-06 	-1.16802e-06 30.0007 	-7.88152e-06 	-1.16802e-06 30.0007 	-7.88152e-06 	-1.16802e-06 30.0007 	-7.88151e-06 	-1.16802e-06 30.0004 	-1.03918e-07 	-3.4029e-06 30.0007 	-7.74562e-06 	-1.00789e-06 30.0007 	-7.74562e-06 	-1.00789e-06 30.0007 	-7.74562e-06 	-1.00789e-06 30.0007 	-7.74561e-06 	-1.00789e-06 30.0004 	-1.05648e-07 	-3.10329e-06 30.0007 	-7.61152e-06 	-8.4188e-07 30.0007 	-7.61151e-06 	-8.4188e-07 30.0007 	-7.61151e-06 	-8.4188e-07 30.0007 	-7.61151e-06 	-8.41879e-07 30.0004 	-2.93207e-06 	-2.48789e-06 30.0007 	-7.47577e-06 	-6.70228e-07 30.0007 	-7.47577e-06 	-6.70228e-07 30.0007 	-7.47577e-06 	-6.70228e-07 30.0007 	-7.47577e-06 	-6.70228e-07 30.0004 	-2.82562e-06 	-2.18314e-06 30.0007 	-7.34368e-06 	-4.97077e-07 30.0007 	-7.34367e-06 	-4.97077e-07 30.0007 	-7.34367e-06 	-4.97077e-07 30.0007 	-7.34367e-06 	-4.97077e-07 30.0004 	-1.10787e-07 	-2.17114e-06 30.0007 	-7.21591e-06 	-3.1735e-07 30.0007 	-7.21591e-06 	-3.1735e-07 30.0007 	-7.2159e-06 	-3.1735e-07 30.0007 	-7.2159e-06 	-3.1735e-07 30.0004 	-1.12482e-07 	-1.85339e-06 30.0007 	-7.0992e-06 	-1.38246e-07 30.0007 	-7.0992e-06 	-1.38246e-07 30.0007 	-7.0992e-06 	-1.38246e-07 30.0007 	-7.0992e-06 	-1.38246e-07 30.0004 	-1.14156e-07 	-1.54905e-06 30.0007 	-6.9859e-06 	4.08236e-08 30.0007 	-6.9859e-06 	4.08236e-08 30.0007 	-6.9859e-06 	4.08236e-08 30.0007 	-6.9859e-06 	4.08236e-08 30.0004 	-2.43924e-06 	-9.5852e-07 30.0007 	-6.87233e-06 	2.14636e-07 30.0007 	-6.87233e-06 	2.14636e-07 30.0007 	-6.87233e-06 	2.14636e-07 30.0007 	-6.87233e-06 	2.14636e-07 30.0004 	-2.34765e-06 	-6.82318e-07 30.0007 	-6.75424e-06 	3.90689e-07 30.0007 	-6.75424e-06 	3.90689e-07 30.0007 	-6.75424e-06 	3.90689e-07 30.0007 	-6.75424e-06 	3.90689e-07 30.0004 	-1.19188e-07 	-7.09797e-07 30.0007 	-6.64379e-06 	5.64345e-07 30.0007 	-6.64379e-06 	5.64345e-07 30.0007 	-6.64379e-06 	5.64345e-07 30.0007 	-6.6438e-06 	5.64345e-07 30.0004 	-2.16735e-06 	-1.45461e-07 30.0007 	-6.53683e-06 	7.27373e-07 30.0007 	-6.53683e-06 	7.27373e-07 30.0007 	-6.53683e-06 	7.27374e-07 30.0007 	-6.53684e-06 	7.27374e-07 30.0004 	-2.08169e-06 	1.13815e-07 30.0007 	-6.43155e-06 	8.78813e-07 30.0007 	-6.43155e-06 	8.78813e-07 30.0007 	-6.43155e-06 	8.78813e-07 30.0007 	-6.43156e-06 	8.78813e-07 30.0004 	-1.24148e-07 	7.05478e-08 30.0007 	-6.32401e-06 	1.01777e-06 30.0007 	-6.32401e-06 	1.01777e-06 30.0007 	-6.32401e-06 	1.01777e-06 30.0007 	-6.32401e-06 	1.01777e-06 30.0004 	-1.25748e-07 	3.15778e-07 30.0007 	-6.21766e-06 	1.14061e-06 30.0007 	-6.21766e-06 	1.14061e-06 30.0007 	-6.21766e-06 	1.14061e-06 30.0007 	-6.21767e-06 	1.14061e-06 30.0004 	-1.2734e-07 	5.45499e-07 30.0007 	-6.11641e-06 	1.25631e-06 30.0007 	-6.11642e-06 	1.25631e-06 30.0007 	-6.11642e-06 	1.25631e-06 30.0007 	-6.11642e-06 	1.25631e-06 30.0004 	-1.76491e-06 	1.03206e-06 30.0007 	-6.0237e-06 	1.37126e-06 30.0007 	-6.0237e-06 	1.37126e-06 30.0007 	-6.02371e-06 	1.37126e-06 30.0007 	-6.02371e-06 	1.37126e-06 30.0004 	-1.30458e-07 	9.3692e-07 30.0007 	-5.94404e-06 	1.48849e-06 30.0007 	-5.94405e-06 	1.48849e-06 30.0007 	-5.94405e-06 	1.48849e-06 30.0007 	-5.94405e-06 	1.48849e-06 30.0004 	-1.31965e-07 	1.10454e-06 30.0007 	-5.87284e-06 	1.59288e-06 30.0007 	-5.87284e-06 	1.59288e-06 30.0007 	-5.87285e-06 	1.59288e-06 30.0007 	-5.87285e-06 	1.59288e-06 30.0004 	-1.59203e-06 	1.53875e-06 30.0007 	-5.80324e-06 	1.67931e-06 30.0007 	-5.80324e-06 	1.67931e-06 30.0007 	-5.80324e-06 	1.67931e-06 30.0007 	-5.80325e-06 	1.67931e-06 30.0003 	-1.54482e-06 	1.6782e-06 30.0007 	-5.73519e-06 	1.75011e-06 30.0007 	-5.7352e-06 	1.75011e-06 30.0007 	-5.7352e-06 	1.75011e-06 30.0007 	-5.7352e-06 	1.75011e-06 30.0003 	-1.36669e-07 	1.52471e-06 30.0006 	-5.67004e-06 	1.80981e-06 30.0006 	-5.67004e-06 	1.80981e-06 30.0006 	-5.67005e-06 	1.80981e-06 30.0006 	-5.67005e-06 	1.80981e-06 30.0003 	-1.38212e-07 	1.63226e-06 30.0006 	-5.60995e-06 	1.85994e-06 30.0006 	-5.60995e-06 	1.85994e-06 30.0006 	-5.60996e-06 	1.85994e-06 30.0006 	-5.60996e-06 	1.85995e-06 30.0003 	-1.39669e-07 	1.72398e-06 30.0006 	-5.55564e-06 	1.90044e-06 30.0006 	-5.55564e-06 	1.90044e-06 30.0006 	-5.55565e-06 	1.90044e-06 30.0006 	-5.55565e-06 	1.90044e-06 30.0003 	-1.38946e-06 	2.07101e-06 30.0006 	-5.50678e-06 	1.9311e-06 30.0006 	-5.50679e-06 	1.9311e-06 30.0006 	-5.50679e-06 	1.9311e-06 30.0006 	-5.5068e-06 	1.9311e-06 30.0003 	-1.36241e-06 	2.13095e-06 30.0006 	-5.46302e-06 	1.95183e-06 30.0006 	-5.46303e-06 	1.95184e-06 30.0006 	-5.46303e-06 	1.95184e-06 30.0006 	-5.46304e-06 	1.95184e-06 30.0003 	-1.4365e-07 	1.90825e-06 30.0006 	-5.42418e-06 	1.96278e-06 30.0006 	-5.42419e-06 	1.96278e-06 30.0006 	-5.42419e-06 	1.96278e-06 30.0006 	-5.42419e-06 	1.96279e-06 30.0003 	-1.32398e-06 	2.20764e-06 30.0006 	-5.39019e-06 	1.96431e-06 30.0006 	-5.3902e-06 	1.96431e-06 30.0006 	-5.3902e-06 	1.96431e-06 30.0006 	-5.3902e-06 	1.96432e-06 30.0003 	-1.31219e-06 	2.22552e-06 30.0006 	-5.36097e-06 	1.95691e-06 30.0006 	-5.36098e-06 	1.95691e-06 30.0006 	-5.36098e-06 	1.95691e-06 30.0006 	-5.36098e-06 	1.95691e-06 30.0003 	-1.47448e-07 	1.96616e-06 30.0005 	-5.33641e-06 	1.94111e-06 30.0005 	-5.33642e-06 	1.94111e-06 30.0005 	-5.33642e-06 	1.94111e-06 30.0005 	-5.33642e-06 	1.94111e-06 30.0003 	-1.48666e-07 	1.96056e-06 30.0005 	-5.31638e-06 	1.91792e-06 30.0005 	-5.31639e-06 	1.91792e-06 30.0005 	-5.31639e-06 	1.91792e-06 30.0005 	-5.31639e-06 	1.91792e-06 30.0003 	-1.49863e-07 	1.94423e-06 30.0005 	-5.30076e-06 	1.88798e-06 30.0005 	-5.30076e-06 	1.88799e-06 30.0005 	-5.30077e-06 	1.88799e-06 30.0005 	-5.30077e-06 	1.88799e-06 30.0003 	-1.30955e-06 	2.17898e-06 30.0005 	-5.28938e-06 	1.85188e-06 30.0005 	-5.28939e-06 	1.85189e-06 30.0005 	-5.28939e-06 	1.85189e-06 30.0005 	-5.28939e-06 	1.85189e-06 30.0003 	-1.52179e-07 	1.88229e-06 30.0005 	-5.28207e-06 	1.81006e-06 30.0005 	-5.28207e-06 	1.81006e-06 30.0005 	-5.28207e-06 	1.81006e-06 30.0005 	-5.28208e-06 	1.81006e-06 30.0003 	-1.53285e-07 	1.83816e-06 30.0005 	-5.2786e-06 	1.76314e-06 30.0005 	-5.2786e-06 	1.76314e-06 30.0005 	-5.2786e-06 	1.76314e-06 30.0005 	-5.27861e-06 	1.76314e-06 30.0003 	-1.34873e-06 	2.04406e-06 30.0005 	-5.27874e-06 	1.7116e-06 30.0005 	-5.27875e-06 	1.7116e-06 30.0005 	-5.27875e-06 	1.7116e-06 30.0005 	-5.27875e-06 	1.7116e-06 30.0003 	-1.36878e-06 	1.98422e-06 30.0005 	-5.28227e-06 	1.65597e-06 30.0005 	-5.28228e-06 	1.65597e-06 30.0005 	-5.28228e-06 	1.65597e-06 30.0005 	-5.28228e-06 	1.65597e-06 30.0002 	-1.56459e-07 	1.6628e-06 30.0005 	-5.28904e-06 	1.59665e-06 30.0005 	-5.28904e-06 	1.59665e-06 30.0005 	-5.28904e-06 	1.59665e-06 30.0005 	-5.28905e-06 	1.59665e-06 30.0002 	-1.57501e-07 	1.59255e-06 30.0004 	-5.29896e-06 	1.53413e-06 30.0004 	-5.29896e-06 	1.53413e-06 30.0004 	-5.29897e-06 	1.53413e-06 30.0004 	-5.29897e-06 	1.53413e-06 30.0002 	-1.58568e-07 	1.51768e-06 30.0004 	-5.31188e-06 	1.46886e-06 30.0004 	-5.31189e-06 	1.46886e-06 30.0004 	-5.31189e-06 	1.46886e-06 30.0004 	-5.31189e-06 	1.46886e-06 30.0002 	-1.48041e-06 	1.69061e-06 30.0004 	-5.3274e-06 	1.40141e-06 30.0004 	-5.32741e-06 	1.40141e-06 30.0004 	-5.32741e-06 	1.40141e-06 30.0004 	-5.32741e-06 	1.40141e-06 30.0002 	-1.51493e-06 	1.60712e-06 30.0004 	-5.34527e-06 	1.33216e-06 30.0004 	-5.34527e-06 	1.33216e-06 30.0004 	-5.34528e-06 	1.33216e-06 30.0004 	-5.34528e-06 	1.33216e-06 30.0002 	-1.61789e-07 	1.27186e-06 30.0004 	-5.36525e-06 	1.26145e-06 30.0004 	-5.36526e-06 	1.26145e-06 30.0004 	-5.36526e-06 	1.26145e-06 30.0004 	-5.36526e-06 	1.26145e-06 30.0002 	-1.59024e-06 	1.43249e-06 30.0004 	-5.38706e-06 	1.18978e-06 30.0004 	-5.38706e-06 	1.18978e-06 30.0004 	-5.38706e-06 	1.18978e-06 30.0004 	-5.38706e-06 	1.18978e-06 30.0002 	-1.63072e-06 	1.34241e-06 30.0004 	-5.41065e-06 	1.11744e-06 30.0004 	-5.41065e-06 	1.11745e-06 30.0004 	-5.41066e-06 	1.11745e-06 30.0004 	-5.41066e-06 	1.11745e-06 30.0002 	-1.64787e-07 	1.00608e-06 30.0004 	-5.43576e-06 	1.04477e-06 30.0004 	-5.43576e-06 	1.04477e-06 30.0004 	-5.43576e-06 	1.04477e-06 30.0004 	-5.43576e-06 	1.04478e-06 30.0002 	-1.65729e-07 	9.15608e-07 30.0004 	-5.46139e-06 	9.72241e-07 30.0004 	-5.46139e-06 	9.72241e-07 30.0004 	-5.46139e-06 	9.72241e-07 30.0004 	-5.4614e-06 	9.72242e-07 30.0002 	-1.66628e-07 	8.24987e-07 30.0004 	-5.48742e-06 	8.99463e-07 30.0004 	-5.48742e-06 	8.99463e-07 30.0004 	-5.48742e-06 	8.99463e-07 30.0004 	-5.48742e-06 	8.99464e-07 30.0002 	-1.80759e-06 	9.7542e-07 30.0004 	-5.51418e-06 	8.25934e-07 30.0004 	-5.51418e-06 	8.25934e-07 30.0004 	-5.51418e-06 	8.25935e-07 30.0004 	-5.51418e-06 	8.25935e-07 30.0002 	-1.68321e-07 	6.43624e-07 30.0003 	-5.54392e-06 	7.51977e-07 30.0003 	-5.54392e-06 	7.51977e-07 30.0003 	-5.54392e-06 	7.51978e-07 30.0003 	-5.54392e-06 	7.51978e-07 30.0002 	-1.69154e-07 	5.52631e-07 30.0003 	-5.57839e-06 	6.77436e-07 30.0003 	-5.57839e-06 	6.77436e-07 30.0003 	-5.57839e-06 	6.77436e-07 30.0003 	-5.57839e-06 	6.77436e-07 30.0002 	-1.95594e-06 	7.01317e-07 30.0003 	-5.61523e-06 	6.04368e-07 30.0003 	-5.61523e-06 	6.04368e-07 30.0003 	-5.61523e-06 	6.04368e-07 30.0003 	-5.61523e-06 	6.04368e-07 30.0002 	-2.00813e-06 	6.11689e-07 30.0003 	-5.65134e-06 	5.34663e-07 30.0003 	-5.65134e-06 	5.34663e-07 30.0003 	-5.65134e-06 	5.34663e-07 30.0003 	-5.65134e-06 	5.34663e-07 30.0002 	-1.71641e-07 	2.8094e-07 30.0003 	-5.68244e-06 	4.67644e-07 30.0003 	-5.68244e-06 	4.67644e-07 30.0003 	-5.68244e-06 	4.67644e-07 30.0003 	-5.68244e-06 	4.67645e-07 30.0002 	-1.72468e-07 	1.97328e-07 30.0003 	-5.71085e-06 	4.03204e-07 30.0003 	-5.71085e-06 	4.03204e-07 30.0003 	-5.71085e-06 	4.03204e-07 30.0003 	-5.71085e-06 	4.03204e-07 30.0002 	-1.73262e-07 	1.16399e-07 30.0003 	-5.73901e-06 	3.3924e-07 30.0003 	-5.73901e-06 	3.3924e-07 30.0003 	-5.73901e-06 	3.3924e-07 30.0003 	-5.73901e-06 	3.3924e-07 30.0002 	-2.20138e-06 	2.74096e-07 30.0003 	-5.76697e-06 	2.75275e-07 30.0003 	-5.76697e-06 	2.75275e-07 30.0003 	-5.76697e-06 	2.75275e-07 30.0003 	-5.76697e-06 	2.75275e-07 30.0002 	-2.24831e-06 	1.96356e-07 30.0003 	-5.79376e-06 	2.108e-07 30.0003 	-5.79376e-06 	2.108e-07 30.0003 	-5.79376e-06 	2.108e-07 30.0003 	-5.79377e-06 	2.108e-07 30.0002 	-1.75441e-07 	-1.09139e-07 30.0003 	-5.82178e-06 	1.48802e-07 30.0003 	-5.82178e-06 	1.48802e-07 30.0003 	-5.82178e-06 	1.48802e-07 30.0003 	-5.82178e-06 	1.48802e-07 30.0002 	-2.34209e-06 	4.4677e-08 30.0003 	-5.85103e-06 	9.00073e-08 30.0003 	-5.85103e-06 	9.00073e-08 30.0003 	-5.85103e-06 	9.00073e-08 30.0003 	-5.85103e-06 	9.00073e-08 30.0002 	-2.38939e-06 	-2.90948e-08 30.0003 	-5.88144e-06 	3.48385e-08 30.0003 	-5.88144e-06 	3.48385e-08 30.0003 	-5.88144e-06 	3.48385e-08 30.0003 	-5.88144e-06 	3.48385e-08 30.0002 	-1.77445e-07 	-3.30756e-07 30.0003 	-5.91324e-06 	-1.70356e-08 30.0003 	-5.91324e-06 	-1.70356e-08 30.0003 	-5.91324e-06 	-1.70356e-08 30.0003 	-5.91324e-06 	-1.70356e-08 30.0002 	-1.78078e-07 	-4.01787e-07 30.0003 	-5.94635e-06 	-6.90109e-08 30.0003 	-5.94635e-06 	-6.90109e-08 30.0003 	-5.94635e-06 	-6.90109e-08 30.0003 	-5.94635e-06 	-6.90109e-08 30.0002 	-1.78675e-07 	-4.67057e-07 30.0003 	-5.97829e-06 	-1.23272e-07 30.0003 	-5.97829e-06 	-1.23272e-07 30.0003 	-5.97829e-06 	-1.23272e-07 30.0003 	-5.97829e-06 	-1.23272e-07 30.0002 	-2.58089e-06 	-3.01366e-07 30.0003 	-6.00605e-06 	-1.77913e-07 30.0003 	-6.00605e-06 	-1.77913e-07 30.0003 	-6.00605e-06 	-1.77913e-07 30.0003 	-6.00605e-06 	-1.77913e-07 30.0002 	-1.79843e-07 	-5.84863e-07 30.0003 	-6.03018e-06 	-2.29167e-07 30.0003 	-6.03018e-06 	-2.29167e-07 30.0003 	-6.03018e-06 	-2.29167e-07 30.0003 	-6.03018e-06 	-2.29167e-07 30.0002 	-1.80441e-07 	-6.42122e-07 30.0003 	-6.0534e-06 	-2.7613e-07 30.0003 	-6.0534e-06 	-2.7613e-07 30.0003 	-6.0534e-06 	-2.7613e-07 30.0003 	-6.0534e-06 	-2.7613e-07 30.0002 	-2.70892e-06 	-4.78965e-07 30.0003 	-6.07723e-06 	-3.19614e-07 30.0003 	-6.07723e-06 	-3.19614e-07 30.0003 	-6.07723e-06 	-3.19614e-07 30.0003 	-6.07723e-06 	-3.19614e-07 30.0002 	-2.74995e-06 	-5.34007e-07 30.0003 	-6.10152e-06 	-3.61136e-07 30.0003 	-6.10152e-06 	-3.61136e-07 30.0003 	-6.10152e-06 	-3.61136e-07 30.0003 	-6.10152e-06 	-3.61136e-07 30.0002 	-1.82158e-07 	-8.03754e-07 30.0003 	-6.12555e-06 	-4.01331e-07 30.0003 	-6.12555e-06 	-4.01331e-07 30.0003 	-6.12555e-06 	-4.01331e-07 30.0003 	-6.12555e-06 	-4.01331e-07 30.0001 	-1.82692e-07 	-8.5307e-07 30.0003 	-6.14891e-06 	-4.40324e-07 30.0003 	-6.14891e-06 	-4.40324e-07 30.0003 	-6.14891e-06 	-4.40324e-07 30.0003 	-6.14891e-06 	-4.40324e-07 30.0001 	-1.83209e-07 	-9.00278e-07 30.0003 	-6.17154e-06 	-4.77949e-07 30.0003 	-6.17154e-06 	-4.77949e-07 30.0003 	-6.17153e-06 	-4.77949e-07 30.0003 	-6.17153e-06 	-4.77948e-07 30.0001 	-2.90939e-06 	-7.31434e-07 30.0003 	-6.1933e-06 	-5.14164e-07 30.0003 	-6.1933e-06 	-5.14164e-07 30.0003 	-6.1933e-06 	-5.14164e-07 30.0003 	-6.1933e-06 	-5.14164e-07 30.0001 	-2.94726e-06 	-7.75559e-07 30.0003 	-6.21425e-06 	-5.48781e-07 30.0003 	-6.21425e-06 	-5.48781e-07 30.0003 	-6.21425e-06 	-5.48781e-07 30.0003 	-6.21425e-06 	-5.48781e-07 30.0001 	-1.84698e-07 	-1.02948e-06 30.0003 	-6.23436e-06 	-5.81995e-07 30.0003 	-6.23435e-06 	-5.81995e-07 30.0003 	-6.23435e-06 	-5.81995e-07 30.0003 	-6.23435e-06 	-5.81995e-07 30.0001 	-3.02024e-06 	-8.57445e-07 30.0003 	-6.2536e-06 	-6.13841e-07 30.0003 	-6.2536e-06 	-6.13841e-07 30.0003 	-6.2536e-06 	-6.1384e-07 30.0003 	-6.25359e-06 	-6.1384e-07 30.0001 	-3.05533e-06 	-8.95452e-07 30.0003 	-6.27208e-06 	-6.44365e-07 30.0003 	-6.27208e-06 	-6.44365e-07 30.0003 	-6.27207e-06 	-6.44365e-07 30.0003 	-6.27207e-06 	-6.44365e-07 30.0001 	-1.86092e-07 	-1.14079e-06 30.0003 	-6.28986e-06 	-6.73568e-07 30.0003 	-6.28986e-06 	-6.73568e-07 30.0003 	-6.28986e-06 	-6.73568e-07 30.0003 	-6.28986e-06 	-6.73568e-07 30.0001 	-1.86544e-07 	-1.17454e-06 30.0003 	-6.30685e-06 	-7.01387e-07 30.0003 	-6.30685e-06 	-7.01386e-07 30.0003 	-6.30685e-06 	-7.01386e-07 30.0003 	-6.30684e-06 	-7.01386e-07 30.0001 	-1.86981e-07 	-1.20663e-06 30.0003 	-6.3229e-06 	-7.27823e-07 30.0003 	-6.3229e-06 	-7.27822e-07 30.0003 	-6.3229e-06 	-7.27822e-07 30.0003 	-6.3229e-06 	-7.27822e-07 30.0001 	-3.18674e-06 	-1.03097e-06 30.0003 	-6.33814e-06 	-7.52934e-07 30.0003 	-6.33814e-06 	-7.52933e-07 30.0003 	-6.33814e-06 	-7.52933e-07 30.0003 	-6.33813e-06 	-7.52933e-07 30.0001 	-1.87818e-07 	-1.26591e-06 30.0003 	-6.35264e-06 	-7.76903e-07 30.0003 	-6.35264e-06 	-7.76902e-07 30.0003 	-6.35264e-06 	-7.76902e-07 30.0003 	-6.35264e-06 	-7.76902e-07 30.0001 	-1.88226e-07 	-1.29327e-06 30.0003 	-6.36641e-06 	-7.99775e-07 30.0003 	-6.36641e-06 	-7.99775e-07 30.0003 	-6.36641e-06 	-7.99775e-07 30.0003 	-6.36641e-06 	-7.99775e-07 30.0001 	-3.27611e-06 	-1.11602e-06 30.0003 	-6.37946e-06 	-8.21506e-07 30.0003 	-6.37946e-06 	-8.21506e-07 30.0003 	-6.37945e-06 	-8.21506e-07 30.0003 	-6.37945e-06 	-8.21506e-07 30.0001 	-3.30421e-06 	-1.1415e-06 30.0003 	-6.39178e-06 	-8.41942e-07 30.0003 	-6.39178e-06 	-8.41941e-07 30.0003 	-6.39177e-06 	-8.41941e-07 30.0003 	-6.39177e-06 	-8.41941e-07 30.0001 	-1.89389e-07 	-1.36681e-06 30.0003 	-6.40339e-06 	-8.61338e-07 30.0003 	-6.40339e-06 	-8.61338e-07 30.0003 	-6.40338e-06 	-8.61338e-07 30.0003 	-6.40338e-06 	-8.61338e-07 30.0001 	-1.89765e-07 	-1.38869e-06 30.0003 	-6.41429e-06 	-8.79778e-07 30.0003 	-6.41429e-06 	-8.79778e-07 30.0003 	-6.41429e-06 	-8.79777e-07 30.0003 	-6.41429e-06 	-8.79777e-07 30.0001 	-1.90131e-07 	-1.40934e-06 30.0003 	-6.42451e-06 	-8.97267e-07 30.0003 	-6.42451e-06 	-8.97267e-07 30.0003 	-6.42451e-06 	-8.97266e-07 30.0003 	-6.42451e-06 	-8.97266e-07 30.0001 	-3.4085e-06 	-1.23049e-06 30.0003 	-6.43406e-06 	-9.13854e-07 30.0003 	-6.43406e-06 	-9.13853e-07 30.0003 	-6.43406e-06 	-9.13853e-07 30.0003 	-6.43405e-06 	-9.13853e-07 30.0001 	-3.43263e-06 	-1.24982e-06 30.0003 	-6.44298e-06 	-9.29541e-07 30.0003 	-6.44298e-06 	-9.29541e-07 30.0003 	-6.44297e-06 	-9.2954e-07 30.0003 	-6.44297e-06 	-9.2954e-07 30.0001 	-1.91213e-07 	-1.46451e-06 30.0003 	-6.45127e-06 	-9.44394e-07 30.0003 	-6.45127e-06 	-9.44393e-07 30.0003 	-6.45126e-06 	-9.44393e-07 30.0003 	-6.45126e-06 	-9.44393e-07 30.0001 	-3.47872e-06 	-1.28531e-06 30.0003 	-6.45893e-06 	-9.58403e-07 30.0003 	-6.45893e-06 	-9.58403e-07 30.0003 	-6.45892e-06 	-9.58402e-07 30.0003 	-6.45892e-06 	-9.58402e-07 30.0001 	-3.50078e-06 	-1.30157e-06 30.0003 	-6.46601e-06 	-9.71695e-07 30.0003 	-6.46601e-06 	-9.71694e-07 30.0003 	-6.46601e-06 	-9.71694e-07 30.0003 	-