# vtk DataFile Version 2.0
track0
ASCII
DATASET POLYDATA
POINTS 15205 float
-1.001 -0.05 0.0011
-1.00088 -0.05 0.0011
-1.00076 -0.05 0.00109999
-1.00064 -0.05 0.00109999
-1.00052 -0.05 0.00109999
-1.0004 -0.05 0.00109998
-0.975398 -0.05 0.00109925
-0.9504 -0.0499999 0.00109824
-0.925402 -0.0499999 0.00109723
-0.900404 -0.0499998 0.00109623
-0.875406 -0.0499998 0.00109522
-0.850407 -0.0499998 0.0010941
-0.825407 -0.0499996 0.00109262
-0.800408 -0.0499995 0.00109114
-0.775408 -0.0499993 0.00108966
-0.750409 -0.0499991 0.00108819
-0.737914 -0.049999 0.00108726
-0.72542 -0.0499989 0.00108573
-0.712925 -0.0499987 0.0010842
-0.700431 -0.0499985 0.00108268
-0.687936 -0.0499983 0.00108115
-0.675431 -0.0499983 0.00108008
-0.662926 -0.0499981 0.00107839
-0.65042 -0.0499979 0.00107671
-0.637915 -0.0499977 0.00107503
-0.62541 -0.0499974 0.00107335
-0.612898 -0.0499972 0.00107205
-0.600387 -0.049997 0.00107012
-0.587876 -0.0499967 0.0010682
-0.575365 -0.0499964 0.00106629
-0.562854 -0.0499961 0.00106437
-0.550338 -0.0499962 0.00106281
-0.537822 -0.0499958 0.00106065
-0.525307 -0.0499954 0.0010585
-0.512791 -0.049995 0.00105635
-0.500275 -0.0499947 0.0010542
-0.487751 -0.0499943 0.00105242
-0.475226 -0.0499938 0.00105011
-0.462701 -0.0499933 0.0010478
-0.450177 -0.0499928 0.0010455
-0.437652 -0.0499923 0.00104321
-0.42513 -0.0499924 0.00104128
-0.412607 -0.0499917 0.00103884
-0.400084 -0.0499911 0.0010364
-0.387562 -0.0499904 0.00103398
-0.375039 -0.0499897 0.00103155
-0.362534 -0.049989 0.00102976
-0.350028 -0.0499881 0.00102812
-0.337522 -0.0499873 0.00102649
-0.325017 -0.0499865 0.00102486
-0.312511 -0.0499856 0.00102323
-0.306259 -0.0499852 0.00102248
-0.300007 -0.0499842 0.00102118
-0.293755 -0.0499833 0.00101987
-0.287503 -0.0499823 0.00101857
-0.281251 -0.0499814 0.00101727
-0.275 -0.0499801 0.00101663
-0.26875 -0.049979 0.00101564
-0.2625 -0.0499778 0.00101465
-0.25625 -0.0499767 0.00101367
-0.25 -0.0499756 0.00101268
-0.24375 -0.049975 0.00101227
-0.2375 -0.0499736 0.00101156
-0.23125 -0.0499722 0.00101084
-0.225 -0.0499708 0.00101012
-0.21875 -0.0499694 0.00100941
-0.2125 -0.0499678 0.00100926
-0.20625 -0.0499661 0.00100889
-0.2 -0.0499644 0.00100852
-0.19375 -0.0499627 0.00100814
-0.1875 -0.0499611 0.00100777
-0.18125 -0.0499603 0.001008
-0.175 -0.0499583 0.00100808
-0.16875 -0.0499563 0.00100817
-0.1625 -0.0499543 0.00100825
-0.15625 -0.0499523 0.00100834
-0.153125 -0.0499512 0.00100851
-0.15 -0.0499489 0.00100878
-0.146875 -0.0499466 0.00100906
-0.14375 -0.0499444 0.00100933
-0.140625 -0.0499421 0.0010096
-0.1375 -0.0499401 0.00100988
-0.134374 -0.0499376 0.00101036
-0.131249 -0.049935 0.00101084
-0.128124 -0.0499324 0.00101132
-0.124999 -0.0499298 0.00101179
-0.121874 -0.0499284 0.00101219
-0.118749 -0.0499255 0.00101284
-0.115624 -0.0499226 0.00101349
-0.112499 -0.0499197 0.00101414
-0.109374 -0.0499169 0.00101479
-0.106249 -0.0499147 0.00101533
-0.103124 -0.0499115 0.0010161
-0.0999989 -0.0499084 0.00101688
-0.0968739 -0.0499053 0.00101766
-0.0937488 -0.0499022 0.00101843
-0.0906239 -0.0499006 0.00101906
-0.0874989 -0.0498972 0.00101996
-0.0843739 -0.0498938 0.00102085
-0.0812489 -0.0498905 0.00102174
-0.0781239 -0.0498871 0.00102264
-0.0749989 -0.0498847 0.0010234
-0.0718739 -0.0498811 0.0010244
-0.0687489 -0.0498775 0.0010254
-0.0656238 -0.049874 0.00102641
-0.0624988 -0.0498704 0.00102741
-0.0593738 -0.0498686 0.00102825
-0.0562488 -0.0498648 0.00102936
-0.0531238 -0.049861 0.00103047
-0.0499988 -0.0498571 0.00103159
-0.0468738 -0.0498533 0.0010327
-0.0437488 -0.0498506 0.00103366
-0.0406238 -0.0498466 0.00103488
-0.0374988 -0.0498426 0.0010361
-0.0343738 -0.0498385 0.00103732
-0.0312488 -0.0498345 0.00103854
-0.0281239 -0.0498325 0.00103958
-0.0249989 -0.0498282 0.0010409
-0.0218739 -0.049824 0.00104222
-0.018749 -0.0498197 0.00104354
-0.015624 -0.0498154 0.00104486
-0.012499 -0.0498125 0.00104602
-0.00937393 -0.049808 0.00104743
-0.00624889 -0.0498035 0.00104885
-0.00312386 -0.049799 0.00105027
1.18318e-06 -0.0497945 0.00105169
0.00312621 -0.0497923 0.00105293
0.00625124 -0.0497876 0.00105444
0.00937627 -0.0497829 0.00105595
0.0125013 -0.0497781 0.00105747
0.0156263 -0.0497734 0.00105899
0.0187516 -0.0497702 0.00106033
0.0218768 -0.0497652 0.00106193
0.025002 -0.0497603 0.00106353
0.0281273 -0.0497553 0.00106514
0.0312525 -0.0497504 0.00106675
0.0343793 -0.049748 0.00106817
0.037506 -0.0497428 0.00106986
0.0406327 -0.0497377 0.00107156
0.0437595 -0.0497325 0.00107325
0.0468862 -0.0497273 0.00107495
0.050011 -0.0497238 0.00107647
0.0531358 -0.0497184 0.00107825
0.0562606 -0.049713 0.00108002
0.0593853 -0.0497076 0.0010818
0.0625101 -0.0497022 0.00108359
0.065635 -0.0496997 0.00108518
0.0687598 -0.049694 0.00108703
0.0718846 -0.0496884 0.00108889
0.0750094 -0.0496828 0.00109076
0.0781342 -0.0496771 0.00109262
0.0812601 -0.0496734 0.0010943
0.084386 -0.0496676 0.00109623
0.0875119 -0.0496617 0.00109817
0.0906377 -0.0496559 0.00110011
0.0937636 -0.04965 0.00110206
0.0968915 -0.0496473 0.0011038
0.100019 -0.0496412 0.00110581
0.103147 -0.0496352 0.00110782
0.106275 -0.0496291 0.00110984
0.109403 -0.049623 0.00111186
0.112529 -0.049619 0.00111368
0.115655 -0.0496127 0.00111576
0.118781 -0.0496065 0.00111784
0.121907 -0.0496002 0.00111993
0.125032 -0.0495939 0.00112202
0.128157 -0.049591 0.00112389
0.131283 -0.0495845 0.00112604
0.134408 -0.049578 0.00112818
0.137533 -0.0495715 0.00113033
0.140658 -0.049565 0.00113249
0.143784 -0.0495608 0.00113443
0.146909 -0.0495541 0.00113663
0.150035 -0.0495474 0.00113884
0.153161 -0.0495407 0.00114105
0.156287 -0.049534 0.00114327
0.159413 -0.0495309 0.00114526
0.16254 -0.0495241 0.00114752
0.165667 -0.0495172 0.00114979
0.168794 -0.0495102 0.00115206
0.171921 -0.0495033 0.00115433
0.175047 -0.0494989 0.00115637
0.178172 -0.0494918 0.00115869
0.181298 -0.0494847 0.001161
0.184424 -0.0494776 0.00116333
0.18755 -0.0494704 0.00116565
0.190674 -0.0494672 0.00116774
0.193799 -0.0494599 0.0011701
0.196923 -0.0494526 0.00117246
0.200048 -0.0494453 0.00117483
0.203172 -0.049438 0.0011772
0.206296 -0.0494334 0.00117933
0.209421 -0.0494259 0.00118173
0.212545 -0.0494184 0.00118413
0.215669 -0.0494109 0.00118654
0.218794 -0.0494034 0.00118895
0.221919 -0.0494001 0.00119112
0.225045 -0.0493924 0.00119356
0.22817 -0.0493848 0.001196
0.231296 -0.0493771 0.00119845
0.234421 -0.0493694 0.0012009
0.237548 -0.0493646 0.0012031
0.240674 -0.0493568 0.00120557
0.2438 -0.0493489 0.00120804
0.246927 -0.0493411 0.00121053
0.250053 -0.0493332 0.00121301
0.25318 -0.0493297 0.00121524
0.256307 -0.0493217 0.00121775
0.259434 -0.0493137 0.00122025
0.262561 -0.0493057 0.00122277
0.265688 -0.0492977 0.00122529
0.268813 -0.0492926 0.00122753
0.271938 -0.0492845 0.00123006
0.275062 -0.0492764 0.00123259
0.278187 -0.0492682 0.00123513
0.281312 -0.04926 0.00123767
0.284435 -0.0492564 0.00123994
0.287558 -0.0492481 0.00124248
0.290681 -0.0492398 0.00124503
0.293804 -0.0492315 0.00124759
0.296927 -0.0492232 0.00125015
0.30005 -0.049218 0.00125242
0.303174 -0.0492096 0.00125498
0.306297 -0.0492012 0.00125755
0.309421 -0.0491928 0.00126011
0.312544 -0.0491843 0.00126269
0.315668 -0.0491806 0.00126499
0.318793 -0.0491721 0.00126756
0.321917 -0.0491635 0.00127013
0.325041 -0.049155 0.00127272
0.328166 -0.0491464 0.0012753
0.331291 -0.049141 0.0012776
0.334416 -0.0491324 0.00128017
0.337541 -0.0491237 0.00128276
0.340666 -0.049115 0.00128535
0.343791 -0.0491063 0.00128794
0.346916 -0.0491025 0.00129026
0.350042 -0.0490937 0.00129284
0.353168 -0.0490849 0.00129543
0.356294 -0.0490761 0.00129803
0.35942 -0.0490673 0.00130063
0.362549 -0.0490618 0.00130293
0.365679 -0.0490529 0.00130553
0.368808 -0.049044 0.00130812
0.371938 -0.0490351 0.00131073
0.375068 -0.0490262 0.00131333
0.378205 -0.0490222 0.00131566
0.381343 -0.0490132 0.00131826
0.384481 -0.0490042 0.00132086
0.387619 -0.0489952 0.00132347
0.390756 -0.0489861 0.00132608
0.393889 -0.0489805 0.00132838
0.397022 -0.0489714 0.00133097
0.400155 -0.0489624 0.00133356
0.403288 -0.0489533 0.00133616
0.406421 -0.0489441 0.00133876
0.409551 -0.0489401 0.00134107
0.412682 -0.048931 0.00134366
0.415813 -0.0489218 0.00134624
0.418943 -0.0489127 0.00134883
0.422074 -0.0489035 0.00135143
0.425204 -0.0488978 0.00135371
0.428334 -0.0488885 0.00135629
0.431464 -0.0488793 0.00135887
0.434594 -0.0488701 0.00136145
0.437724 -0.0488608 0.00136404
0.440854 -0.0488567 0.00136633
0.443984 -0.0488474 0.0013689
0.447114 -0.0488381 0.00137146
0.450244 -0.0488288 0.00137404
0.453374 -0.0488194 0.00137662
0.456504 -0.0488137 0.00137888
0.459634 -0.0488043 0.00138143
0.462763 -0.0487949 0.00138399
0.465893 -0.0487855 0.00138655
0.469023 -0.0487761 0.00138912
0.472152 -0.048772 0.00139138
0.475282 -0.0487626 0.00139392
0.478411 -0.0487532 0.00139646
0.481541 -0.0487437 0.00139901
0.48467 -0.0487343 0.00140156
0.4878 -0.0487284 0.00140379
0.490929 -0.048719 0.00140631
0.494058 -0.0487095 0.00140884
0.497187 -0.0487 0.00141137
0.500317 -0.0486905 0.00141391
0.503446 -0.0486863 0.00141614
0.506575 -0.0486768 0.00141864
0.509704 -0.0486673 0.00142115
0.512833 -0.0486578 0.00142367
0.515962 -0.0486482 0.00142618
0.519091 -0.0486423 0.00142838
0.52222 -0.0486328 0.00143086
0.525348 -0.0486232 0.00143335
0.528477 -0.0486137 0.00143584
0.531606 -0.0486041 0.00143834
0.534734 -0.0485999 0.00144053
0.537863 -0.0485903 0.001443
0.540992 -0.0485807 0.00144547
0.54412 -0.0485711 0.00144794
0.547249 -0.0485615 0.00145041
0.550377 -0.0485556 0.00145257
0.553506 -0.048546 0.00145501
0.556634 -0.0485364 0.00145745
0.559762 -0.0485268 0.0014599
0.562891 -0.0485171 0.00146235
0.566019 -0.0485129 0.0014645
0.569147 -0.0485033 0.00146692
0.572275 -0.0484937 0.00146934
0.575403 -0.0484841 0.00147177
0.578532 -0.0484744 0.0014742
0.58166 -0.0484684 0.0014763
0.584788 -0.0484588 0.0014787
0.587915 -0.0484492 0.00148109
0.591043 -0.0484396 0.00148349
0.594171 -0.0484299 0.00148589
0.597299 -0.0484257 0.001488
0.600427 -0.0484161 0.00149038
0.603555 -0.0484064 0.00149276
0.606683 -0.0483968 0.00149514
[...]
POINT_DATA 15205
 FIELD attributes 1
U 3 15205 float
25.0026 	2.03932e-05 	-0.000700346 25.0025 	1.98756e-05 	-0.000707259 25.0023 	1.9358e-05 	-0.000714172 25.0022 	1.88404e-05 	-0.000721085 25.002 	1.83227e-05 	-0.000727998 25.0019 	1.78051e-05 	-0.000734911 25.0046 	5.27813e-05 	-0.00100845 25.0046 	5.27329e-05 	-0.00100753 25.0046 	5.26845e-05 	-0.0010066 25.0046 	5.26362e-05 	-0.00100568 25.0028 	-3.39726e-06 	-0.00112143 25.0075 	0.000157413 	-0.00148154 25.0074 	0.0001572 	-0.00147953 25.0074 	0.000156987 	-0.00147753 25.0074 	0.000156775 	-0.00147553 25.0093 	0.000216719 	-0.00185953 25.0184 	0.000368036 	-0.00306202 25.0183 	0.000367518 	-0.00305772 25.0183 	0.000367002 	-0.00305342 25.0183 	0.000366485 	-0.00304912 25.0109 	-3.81483e-05 	-0.00214711 25.0235 	0.000442101 	-0.00337452 25.0234 	0.000441411 	-0.00336925 25.0234 	0.000440722 	-0.00336399 25.0233 	0.000440033 	-0.00335873 25.0135 	0.000400141 	-0.00260821 25.0295 	0.000564001 	-0.00384829 25.0294 	0.000562989 	-0.00384139 25.0293 	0.000561979 	-0.0038345 25.0293 	0.000560971 	-0.00382762 25.0167 	-8.63655e-05 	-0.00312105 25.0366 	0.000745587 	-0.00431896 25.0366 	0.000744073 	-0.00431018 25.0365 	0.000742561 	-0.00430143 25.0364 	0.000741053 	-0.00429269 25.0204 	0.000824558 	-0.00356179 25.0449 	0.000989468 	-0.00461853 25.0448 	0.000987296 	-0.0046084 25.0447 	0.000985129 	-0.00459828 25.0446 	0.000982967 	-0.00458819 25.0251 	-0.000181628 	-0.0038604 25.0552 	0.00132304 	-0.00488119 25.055 	0.00131994 	-0.00486975 25.0549 	0.00131685 	-0.00485834 25.0548 	0.00131377 	-0.00484696 25.0302 	0.00158048 	-0.00359551 25.0652 	0.00165944 	-0.00327778 25.0651 	0.0016568 	-0.00327257 25.065 	0.00165417 	-0.00326737 25.0649 	0.00165155 	-0.00326219 25.071 	0.00196378 	-0.00301295 25.1403 	0.00383727 	-0.00524603 25.1401 	0.00383237 	-0.00523934 25.1399 	0.00382748 	-0.00523266 25.1398 	0.0038226 	-0.00522598 25.0742 	0.00489926 	-0.00257336 25.1504 	0.0046071 	-0.00397935 25.1502 	0.00460262 	-0.00397548 25.1501 	0.00459814 	-0.00397162 25.1499 	0.00459367 	-0.00396775 25.0795 	0.00240208 	-0.00163444 25.1586 	0.00561882 	-0.00288723 25.1585 	0.00561484 	-0.00288518 25.1584 	0.00561086 	-0.00288314 25.1583 	0.00560689 	-0.00288109 25.0829 	0.00636746 	-0.000588735 25.1658 	0.00678292 	-0.00150059 25.1658 	0.00678041 	-0.00150004 25.1657 	0.00677791 	-0.00149948 25.1656 	0.0067754 	-0.00149893 25.087 	0.00305503 	0.000909957 25.1706 	0.00802375 	0.000340187 25.1706 	0.00802442 	0.000340215 25.1706 	0.00802509 	0.000340244 25.1706 	0.00802576 	0.000340273 25.1734 	0.0093426 	0.00141311 25.3456 	0.0183575 	0.00221228 25.3457 	0.0183625 	0.00221288 25.3458 	0.0183674 	0.00221348 25.3459 	0.0183724 	0.00221408 25.1747 	0.015819 	0.00224947 25.3509 	0.0209754 	0.00387618 25.3511 	0.0209854 	0.00387802 25.3512 	0.0209953 	0.00387985 25.3514 	0.0210052 	0.00388169 25.1778 	0.0113487 	0.00322885 25.3545 	0.0233532 	0.00525557 25.3547 	0.0233682 	0.00525893 25.355 	0.0233831 	0.0052623 25.3552 	0.0233981 	0.00526567 25.1784 	0.0177667 	0.00433782 25.357 	0.0253118 	0.00629382 25.3573 	0.0253311 	0.00629863 25.3576 	0.0253505 	0.00630344 25.3578 	0.0253699 	0.00630825 25.1803 	0.0130214 	0.00508042 25.3581 	0.0271903 	0.00724596 25.3584 	0.0272141 	0.00725231 25.3587 	0.027238 	0.00725866 25.359 	0.0272618 	0.00726502 25.1797 	0.0196652 	0.00609562 25.3582 	0.0290072 	0.00813276 25.3585 	0.0290356 	0.00814073 25.3589 	0.029064 	0.0081487 25.3592 	0.0290925 	0.00815668 25.1808 	0.0144997 	0.00677602 25.3579 	0.0308646 	0.00901442 25.3583 	0.0308979 	0.00902416 25.3587 	0.0309313 	0.00903391 25.3591 	0.0309647 	0.00904367 25.1798 	0.0216695 	0.00774982 25.3567 	0.0327205 	0.00986764 25.3572 	0.032759 	0.00987925 25.3576 	0.0327976 	0.00989087 25.358 	0.0328361 	0.00990251 25.18 	0.0159964 	0.00841575 25.3547 	0.0345795 	0.0106888 25.3552 	0.0346233 	0.0107023 25.3556 	0.0346672 	0.0107159 25.3561 	0.0347111 	0.0107295 25.1782 	0.0237205 	0.00933171 25.3519 	0.0364467 	0.0114833 25.3524 	0.036496 	0.0114988 25.3529 	0.0365454 	0.0115144 25.3533 	0.0365948 	0.01153 25.1774 	0.0174933 	0.00998035 25.3482 	0.0382646 	0.0122502 25.3487 	0.0383195 	0.0122678 25.3492 	0.0383745 	0.0122854 25.3497 	0.0384295 	0.012303 25.1747 	0.0257623 	0.0108243 25.3436 	0.0400917 	0.0129884 25.3441 	0.0401522 	0.013008 25.3446 	0.0402129 	0.0130277 25.3452 	0.0402736 	0.0130474 25.1733 	0.0189779 	0.0114544 25.3385 	0.041919 	0.0137043 25.339 	0.0419854 	0.013726 25.3396 	0.0420518 	0.0137477 25.3401 	0.0421184 	0.0137695 25.1699 	0.0278226 	0.0122188 25.3327 	0.0437227 	0.0143913 25.3333 	0.0437949 	0.014415 25.3338 	0.0438671 	0.0144388 25.3344 	0.0439394 	0.0144626 25.1675 	0.0204232 	0.0128012 25.3262 	0.0455211 	0.0150456 25.3267 	0.045599 	0.0150713 25.3273 	0.045677 	0.0150971 25.3279 	0.0457551 	0.0151229 25.1638 	0.0298728 	0.0134885 25.3191 	0.0473049 	0.0156712 25.3197 	0.0473885 	0.015699 25.3202 	0.0474723 	0.0157267 25.3208 	0.0475562 	0.0157545 25.1606 	0.0218644 	0.0140219 25.3116 	0.04904 	0.016269 25.3121 	0.0491293 	0.0162987 25.3127 	0.0492188 	0.0163283 25.3133 	0.0493084 	0.0163581 25.1565 	0.0318688 	0.0146215 25.3034 	0.0507391 	0.0168258 25.304 	0.0508338 	0.0168572 25.3045 	0.0509287 	0.0168886 25.3051 	0.0510238 	0.0169201 25.1525 	0.023249 	0.0151016 25.2946 	0.0524082 	0.0173416 25.2952 	0.0525082 	0.0173747 25.2957 	0.0526082 	0.0174078 25.2963 	0.0527085 	0.017441 25.1479 	0.0337798 	0.0155979 25.2855 	0.0540579 	0.0178255 25.2861 	0.0541629 	0.0178601 25.2866 	0.0542681 	0.0178948 25.2872 	0.0543735 	0.0179296 25.1435 	0.0246016 	0.0160325 25.2762 	0.0557116 	0.0182782 25.2767 	0.0558216 	0.0183143 25.2773 	0.0559318 	0.0183505 25.2778 	0.0560422 	0.0183867 25.1387 	0.035685 	0.0164317 25.2665 	0.0573089 	0.0186927 25.267 	0.0574235 	0.01873 25.2675 	0.0575383 	0.0187675 25.2681 	0.0576534 	0.018805 25.1338 	0.0259171 	0.0168154 25.2563 	0.0588165 	0.0190609 25.2568 	0.0589352 	0.0190994 25.2573 	0.0590543 	0.0191379 25.2578 	0.0591735 	0.0191766 25.1285 	0.0374268 	0.017105 25.2457 	0.0602562 	0.0193838 25.2462 	0.0603788 	0.0194232 25.2467 	0.0605016 	0.0194627 25.2472 	0.0606247 	0.0195023 25.1233 	0.0270963 	0.0174309 25.2351 	0.061657 	0.0196784 25.2356 	0.0617832 	0.0197186 25.236 	0.0619096 	0.019759 25.2365 	0.0620363 	0.0197994 25.1179 	0.0390442 	0.0176289 25.2244 	0.0630178 	0.0199427 25.2249 	0.0631472 	0.0199836 25.2254 	0.063277 	0.0200247 25.2258 	0.063407 	0.0200658 25.1126 	0.0282318 	0.0179122 25.2138 	0.064334 	0.0201815 25.2142 	0.0644665 	0.0202231 25.2147 	0.0645993 	0.0202647 25.2151 	0.0647323 	0.0203064 25.1072 	0.0405965 	0.0180317 25.2029 	0.0655579 	0.020378 25.2033 	0.0656928 	0.02042 25.2037 	0.0658281 	0.020462 25.2042 	0.0659635 	0.0205041 25.1017 	0.0292684 	0.0182742 25.1917 	0.0666657 	0.020521 25.1921 	0.0668025 	0.0205631 25.1925 	0.0669395 	0.0206053 25.1929 	0.0670769 	0.0206475 25.096 	0.0418865 	0.0182844 25.1804 	0.0676952 	0.0206268 25.1808 	0.0678335 	0.0206689 25.1812 	0.0679721 	0.0207111 25.1815 	0.0681109 	0.0207535 25.0903 	0.0301092 	0.0184721 25.1693 	0.0686784 	0.0207058 25.1697 	0.068818 	0.0207479 25.17 	0.0689578 	0.02079 25.1704 	0.0690979 	0.0208322 25.0849 	0.043034 	0.0184148 25.1584 	0.0696208 	0.0207646 25.1587 	0.0697614 	0.0208065 25.1591 	0.0699022 	0.0208486 25.1594 	0.0700433 	0.0208906 25.0793 	0.0309007 	0.018573 25.1477 	0.0705142 	0.0208027 25.148 	0.0706555 	0.0208444 25.1483 	0.0707971 	0.0208861 25.1486 	0.070939 	0.020928 25.0741 	0.0440888 	0.0184508 25.1372 	0.0713422 	0.0208171 25.1374 	0.0714841 	0.0208586 25.1377 	0.0716263 	0.0209 25.138 	0.0717688 	0.0209416 25.0687 	0.0316128 	0.0185857 25.1266 	0.0720286 	0.0208017 25.1269 	0.0721708 	0.0208427 25.1271 	0.0723133 	0.0208839 25.1274 	0.0724561 	0.0209251 25.0635 	0.044909 	0.0183914 25.1163 	0.0726635 	0.0207549 25.1165 	0.0728051 	0.0207953 25.1168 	0.072947 	0.0208359 25.117 	0.0730892 	0.0208765 25.0582 	0.0321533 	0.0184894 25.1064 	0.0733028 	0.0207044 25.1066 	0.0734439 	0.0207442 25.1068 	0.0735853 	0.0207841 25.107 	0.073727 	0.0208242 25.0534 	0.0456815 	0.0182629 25.0967 	0.073903 	0.0206398 25.0969 	0.0740436 	0.0206791 25.0971 	0.0741844 	0.0207184 25.0973 	0.0743254 	0.0207578 25.0484 	0.0326745 	0.0183404 25.0873 	0.0744457 	0.0205559 25.0875 	0.0745854 	0.0205945 25.0876 	0.0747254 	0.0206332 25.0878 	0.0748657 	0.0206719 25.0439 	0.0463608 	0.0180755 25.0782 	0.0749265 	0.0204535 25.0783 	0.0750652 	0.0204914 25.0785 	0.0752042 	0.0205293 25.0786 	0.0753434 	0.0205673 25.0392 	0.033097 	0.0181265 25.0693 	0.075352 	0.0203341 25.0694 	0.0754894 	0.0203712 25.0695 	0.0756272 	0.0204083 25.0697 	0.0757651 	0.0204456 25.0349 	0.0469062 	0.0178305 25.0607 	0.0757241 	0.0201983 25.0608 	0.0758602 	0.0202346 25.0609 	0.0759965 	0.020271 25.061 	0.076133 	0.0203074 25.0304 	0.0334248 	0.0178579 25.0524 	0.0760421 	0.0200502 25.0525 	0.0761766 	0.0200856 25.0526 	0.0763113 	0.0201211 25.0527 	0.0764462 	0.0201567 25.0265 	0.0473292 	0.01754 25.0444 	0.0763061 	0.0198886 25.0445 	0.0764388 	0.0199232 25.0446 	0.0765718 	0.0199579 25.0446 	0.076705 	0.0199926 25.0222 	0.0336642 	0.0175468 25.0367 	0.0765201 	0.0197151 25.0368 	0.076651 	0.0197488 25.0369 	0.0767821 	0.0197826 25.0369 	0.0769134 	0.0198164 25.0187 	0.0476251 	0.017213 25.0294 	0.0766812 	0.0195279 25.0295 	0.07681 	0.0195607 25.0295 	0.0769391 	0.0195935 25.0296 	0.0770683 	0.0196265 25.0147 	0.0338173 	0.0172019 25.0224 	0.0767902 	0.0193318 25.0224 	0.0769169 	0.0193637 25.0225 	0.0770438 	0.0193957 25.0225 	0.077171 	0.0194277 25.0115 	0.0477999 	0.0168608 25.0157 	0.0768244 	0.0191261 25.0158 	0.0769489 	0.0191571 25.0158 	0.0770735 	0.0191882 25.0158 	0.0771984 	0.0192192 25.0078 	0.0338696 	0.01687 25.0097 	0.0768253 	0.0189831 25.0097 	0.0769479 	0.0190134 25.0097 	0.0770707 	0.0190437 25.0097 	0.0771936 	0.0190741 25.0049 	0.0478636 	0.0165718 25.0032 	0.0768066 	0.0188758 25.0032 	0.0769276 	0.0189055 25.0032 	0.0770487 	0.0189353 25.0032 	0.07717 	0.0189651 25.0014 	0.0338831 	0.0166157 24.9973 	0.0767989 	0.0187805 24.9973 	0.0769183 	0.0188097 24.9973 	0.0770379 	0.018839 24.9973 	0.0771577 	0.0188683 24.9988 	0.0478584 	0.0163222 24.9912 	0.0767095 	0.0186355 24.9912 	0.076827 	0.018664 24.9912 	0.0769447 	0.0186926 24.9912 	0.0770625 	0.0187212 24.9956 	0.033847 	0.0163438 24.986 	0.0766197 	0.0185381 24.986 	0.0767356 	0.0185661 24.986 	0.0768517 	0.0185942 24.986 	0.0769679 	0.0186223 24.9933 	0.0477904 	0.016073 24.9801 	0.0765271 	0.01847 24.98 	0.0766416 	0.0184976 24.98 	0.0767562 	0.0185253 24.98 	0.0768711 	0.018553 24.9901 	0.0337814 	0.016083 24.9749 	0.0764284 	0.0183157 24.9748 	0.076541 	0.0183426 24.9748 	0.0766537 	0.0183697 24.9747 	0.0767667 	0.0183967 24.9882 	0.0476913 	0.0157646 24.9701 	0.0762782 	0.0180859 24.97 	0.0763884 	0.018112 24.97 	0.0764987 	0.0181382 24.9699 	0.0766092 	0.0181644 24.9854 	0.0336732 	0.015691 24.9655 	0.076087 	0.0178481 24.9654 	0.0761947 	0.0178733 24.9654 	0.0762006 	0.0178935 24.9655 	0.0760365 	0.0179051 24.9836 	0.047297 	0.0153728 24.9616 	0.0750399 	0.0175749 24.9617 	0.0748764 	0.0175841 24.9618 	0.0747135 	0.0175934 24.9618 	0.0745511 	0.0176028 24.9811 	0.0335103 	0.0153066 24.9584 	0.073627 	0.0173135 24.9585 	0.0734691 	0.0173242 24.9586 	0.0733118 	0.0173349 24.9587 	0.073155 	0.0173457 24.9796 	0.0462756 	0.0150273 24.9554 	0.0721644 	0.0170359 24.9554 	0.0720085 	0.0170446 24.9555 	0.0718531 	0.0170533 24.9556 	0.0716982 	0.0170621 24.9773 	0.0333154 	0.0149633 24.9529 	0.0708172 	0.0168142 24.953 	0.0706669 	0.0168242 24.9531 	0.0705171 	0.0168342 24.9532 	0.0703677 	0.0168443 24.9761 	0.0452654 	0.0147151 24.9504 	0.0693923 	0.0165456 24.9505 	0.069244 	0.0165538 24.9506 	0.0690962 	0.0165621 24.9506 	0.0689489 	0.0165704 24.974 	0.0330991 	0.014647 24.9485 	0.0681128 	0.0163537 24.9486 	0.0679699 	0.0163631 24.9487 	0.0678276 	0.0163726 24.9488 	0.0676857 	0.016382 24.973 	0.0442748 	0.0144261 24.9465 	0.0667093 	0.0160883 24.9466 	0.0665685 	0.0160961 24.9467 	0.0664281 	0.0161039 24.9468 	0.0662882 	0.0161118 24.9711 	0.0328597 	0.0143483 24.9451 	0.0654506 	0.0159138 24.9453 	0.0652725 	0.0159207 24.9454 	0.0650949 	0.0159276 24.9455 	0.0649179 	0.0159346 24.9703 	0.0432139 	0.0141473 24.9437 	0.0639001 	0.0156407 24.9438 	0.0637259 	0.015646 24.9439 	0.0635523 	0.0156514 24.9441 	0.0633792 	0.0156568 24.9687 	0.0326033 	0.0140629 24.9429 	0.0625736 	0.0154846 24.943 	0.0624069 	0.0154912 24.9431 	0.0622407 	0.0154979 24.9433 	0.062075 	0.0155046 24.9679 	0.0421334 	0.013887 24.9418 	0.0610912 	0.0152188 24.9419 	0.0609282 	0.015224 24.9421 	0.0607657 	0.0152293 24.9422 	0.0606037 	0.0152346 24.9665 	0.0323401 	0.0137949 24.9413 	0.0598593 	0.015087 24.9415 	0.0597002 	0.0150933 24.9416 	0.0595415 	0.0150996 24.9418 	0.0593834 	0.0151059 24.9659 	0.0411043 	0.0136397 24.9406 	0.0584306 	0.0148168 24.9407 	0.0582781 	0.014822 24.9409 	0.0581261 	0.0148271 24.941 	0.0579745 	0.0148323 24.9647 	0.0320765 	0.0135337 24.9405 	0.0572636 	0.0147142 24.9406 	0.0571085 	0.0147199 24.9407 	0.0569539 	0.0147257 24.9409 	0.0567997 	0.0147315 24.9643 	0.0401348 	0.013385 24.9402 	0.0558478 	0.0143738 24.9404 	0.0556399 	0.014376 24.9406 	0.0554325 	0.0143783 24.9408 	0.0552257 	0.0143805 24.9632 	0.0318473 	0.0132715 24.9407 	0.0543327 	0.0145259 24.941 	0.0540684 	0.0145233 24.9412 	0.0538049 	0.0145208 24.9415 	0.0535421 	0.0145184 24.9629 	0.038978 	0.0131049 24.9412 	0.0527926 	0.0130345 24.9417 	0.0523072 	0.0130444 24.9421 	0.0518232 	0.0130544 24.9426 	0.0513406 	0.0130645 24.9621 	0.0317016 	0.0129944 24.9618 	0.0313002 	0.0127246 24.9617 	0.031357 	0.0127477 24.9617 	0.031414 	0.0127709 24.9616 	0.0314711 	0.0127941 24.9838 	0.0240658 	0.0133424 24.961 	0.0312361 	0.0122947 24.9609 	0.0312903 	0.012316 24.9608 	0.0313446 	0.0123374 24.9608 	0.031399 	0.0123588 24.983 	0.0100056 	0.0129484 24.9604 	0.0306421 	0.0124985 24.9603 	0.0306958 	0.0125204 24.9603 	0.0307495 	0.0125423 24.9602 	0.0308033 	0.0125643 24.9831 	0.0238606 	0.0128061 24.9594 	0.0322445 	0.00976849 24.9594 	0.0322883 	0.00978174 24.9593 	0.0323321 	0.00979501 24.9593 	0.0323759 	0.0098083 24.9824 	0.0099298 	0.0124268 24.9821 	0.00967732 	0.0120653 24.982 	0.00970943 	0.0121054 24.9819 	0.00974165 	0.0121455 24.9819 	0.00977398 	0.0121859 24.9929 	-0.00212062 	0.013693 24.9815 	0.00952119 	0.0118053 24.9814 	0.00955158 	0.011843 24.9814 	0.00958207 	0.0118808 24.9813 	0.00961265 	0.0119187 24.9928 	0.0125088 	0.0133381 24.9812 	0.00941112 	0.0116422 24.9811 	0.00944026 	0.0116782 24.9811 	0.00946949 	0.0117144 24.981 	0.00949881 	0.0117506 24.9925 	-0.00206708 	0.0132629 24.9811 	0.00916037 	0.0112164 24.9811 	0.00918727 	0.0112493 24.981 	0.00921424 	0.0112824 24.981 	0.00924129 	0.0113155 24.9926 	0.0124339 	0.0129912 24.9815 	0.00966329 	0.0115098 24.9815 	0.00969197 	0.0115439 24.9814 	0.00972073 	0.0115782 24.9814 	0.00974958 	0.0116126 24.9926 	-0.00206001 	0.0128908 24.9818 	0.00703209 	0.00902886 24.9818 	0.00704822 	0.00904957 24.9817 	0.00706438 	0.00907032 24.9817 	0.00708058 	0.00909113 24.9928 	0.0124952 	0.0127376 24.9929 	0.0124296 	0.0125525 24.9929 	0.0125076 	0.0126313 24.9928 	0.0125861 	0.0127106 24.9928 	0.0126652 	0.0127904 24.9969 	-0.0011356 	0.0138596 24.9927 	0.0123214 	0.0122204 24.9927 	0.0123943 	0.0122927 24.9927 	0.0124676 	0.0123654 24.9926 	0.0125414 	0.0124386 24.997 	0.0147608 	0.012686 24.9933 	0.0130554 	0.0126702 24.9932 	0.0131333 	0.0127457 24.9932 	0.0132115 	0.0128217 24.9931 	0.0132903 	0.0128981 24.9972 	-0.00116339 	0.0136515 24.9945 	0.0103932 	0.0105931 24.9945 	0.0104435 	0.0106443 24.9945 	0.010494 	0.0106958 24.9945 	0.0105447 	0.0107475 24.9976 	0.0155901 	0.0126989 24.9982 	0.0165128 	0.012589 24.9982 	0.0166969 	0.0127293 24.9982 	0.0168831 	0.0128712 24.9981 	0.0170713 	0.0130147 24.9983 	-0.000826949 	0.0151317 24.9977 	0.0176409 	0.012494 24.9977 	0.0178252 	0.0126245 24.9976 	0.0180115 	0.0127564 24.9976 	0.0181997 	0.0128898 24.9981 	0.018983 	0.00965729 24.9976 	0.0186719 	0.0117944 24.9975 	0.0188472 	0.0119051 24.9975 	0.0190242 	0.0120169 24.9975 	0.0192029 	0.0121298 24.9981 	-0.000935243 	0.014673 24.999 	0.0161608 	0.00932537 24.999 	0.0162751 	0.00939132 24.999 	0.0163902 	0.00945773 24.999 	0.0165062 	0.00952462 24.9987 	0.0192888 	0.00932476 24.9994 	0.0195721 	0.00896642 24.9994 	0.0198274 	0.00908337 24.9994 	0.020086 	0.00920184 24.9994 	0.0203479 	0.00932185 24.995 	-0.000184046 	0.00920698 24.9989 	0.0206267 	0.008619 24.9989 	0.0208692 	0.00872031 24.9989 	0.0211145 	0.00882282 24.9989 	0.0213627 	0.00892653 24.9975 	0.00766993 	0.00246413 24.9985 	0.0211827 	0.00840026 24.9985 	0.0214135 	0.00849181 24.9984 	0.0216469 	0.00858436 24.9984 	0.0218828 	0.00867791 24.9952 	-0.000259238 	0.00929734 24.9985 	0.0219921 	0.00940776 24.9985 	0.0222462 	0.00951646 24.9984 	0.0225033 	0.00962641 24.9984 	0.0227633 	0.00973763 24.9973 	0.00788677 	0.00288436 24.9972 	0.00765009 	0.00311571 24.9971 	0.00770564 	0.00313833 24.9971 	0.00776159 	0.00316111 24.9971 	0.00781794 	0.00318407 24.9986 	-8.89933e-06 	0.00185527 24.9973 	0.00717616 	0.00347836 24.9973 	0.00723243 	0.00350564 24.9973 	0.00728914 	0.00353313 24.9973 	0.0073463 	0.00356083 24.9986 	-1.41575e-05 	0.00198022 24.9974 	0.00702996 	0.00363422 24.9974 	0.00708555 	0.00366295 24.9974 	0.00714157 	0.00369191 24.9974 	0.00719803 	0.0037211 24.9986 	-1.62955e-05 	0.00203809 24.9974 	0.00698516 	0.00371728 24.9974 	0.00703967 	0.00374629 24.9974 	0.0070946 	0.00377552 24.9974 	0.00714996 	0.00380498 24.9985 	-1.78871e-05 	0.00208059 24.9974 	0.00696839 	0.00377207 24.9974 	0.00702165 	0.0038009 24.9974 	0.00707532 	0.00382995 24.9973 	0.0071294 	0.00385923 24.9985 	-1.94027e-05 	0.00211764 24.9974 	0.00696811 	0.00380781 24.9974 	0.00702005 	0.00383619 24.9973 	0.00707237 	0.00386478 24.9973 	0.00712508 	0.00389359 24.9985 	-2.06688e-05 	0.00215014 24.9974 	0.00697994 	0.00382889 24.9974 	0.00703051 	0.00385663 24.9973 	0.00708145 	0.00388458 24.9973 	0.00713276 	0.00391272 24.9984 	-2.1652e-05 	0.00217888 24.9974 	0.0069992 	0.00383896 24.9973 	0.0070484 	0.00386595 24.9973 	0.00709795 	0.00389312 24.9973 	0.00714784 	0.00392049 24.9984 	-2.24938e-05 	0.00220535 24.9973 	0.00702487 	0.00384547 24.9973 	0.00707278 	0.0038717 24.9973 	0.00712102 	0.0038981 24.9973 	0.00716959 	0.00392469 24.9984 	-2.32514e-05 	0.00222409 24.9699 	0.00546068 	0.0421202 24.9417 	0.00434903 	0.0815707 24.9133 	0.00371969 	0.121217 24.8848 	0.00357615 	0.16106 24.8609 	0.0026419 	0.190899