# vtk DataFile Version 2.0
track0
ASCII
DATASET POLYDATA
POINTS 15205 float
-1.001 -0.05 0.0011
-1.00088 -0.05 0.0011
-1.00076 -0.05 0.00109999
-1.00064 -0.05 0.00109999
-1.00052 -0.05 0.00109999
-1.0004 -0.05 0.00109998
-0.975398 -0.05 0.00109925
-0.9504 -0.0499999 0.00109824
-0.925402 -0.0499999 0.00109723
-0.900404 -0.0499998 0.00109623
-0.875406 -0.0499998 0.00109522
-0.850407 -0.0499998 0.0010941
-0.825407 -0.0499996 0.00109262
-0.800408 -0.0499995 0.00109114
-0.775408 -0.0499993 0.00108966
-0.750409 -0.0499991 0.00108819
-0.737914 -0.049999 0.00108726
-0.72542 -0.0499989 0.00108573
-0.712925 -0.0499987 0.0010842
-0.700431 -0.0499985 0.00108268
-0.687936 -0.0499983 0.00108115
-0.675431 -0.0499983 0.00108008
-0.662926 -0.0499981 0.00107839
-0.65042 -0.0499979 0.00107671
-0.637915 -0.0499977 0.00107503
-0.62541 -0.0499974 0.00107335
-0.612898 -0.0499972 0.00107205
-0.600387 -0.049997 0.00107012
-0.587876 -0.0499967 0.0010682
-0.575365 -0.0499964 0.00106629
-0.562854 -0.0499961 0.00106437
-0.550338 -0.0499962 0.00106281
-0.537822 -0.0499958 0.00106065
-0.525307 -0.0499954 0.0010585
-0.512791 -0.049995 0.00105635
-0.500275 -0.0499947 0.0010542
-0.487751 -0.0499943 0.00105242
-0.475226 -0.0499938 0.00105011
-0.462701 -0.0499933 0.0010478
-0.450177 -0.0499928 0.0010455
-0.437652 -0.0499923 0.00104321
-0.42513 -0.0499924 0.00104128
-0.412607 -0.0499917 0.00103884
-0.400084 -0.0499911 0.0010364
-0.387562 -0.0499904 0.00103398
-0.375039 -0.0499897 0.00103155
-0.362534 -0.049989 0.00102976
-0.350028 -0.0499881 0.00102812
-0.337522 -0.0499873 0.00102649
-0.325017 -0.0499865 0.00102486
-0.312511 -0.0499856 0.00102323
-0.306259 -0.0499852 0.00102248
-0.300007 -0.0499842 0.00102118
-0.293755 -0.0499833 0.00101987
-0.287503 -0.0499823 0.00101857
-0.281251 -0.0499814 0.00101727
-0.275 -0.0499801 0.00101663
-0.26875 -0.049979 0.00101564
-0.2625 -0.0499778 0.00101465
-0.25625 -0.0499767 0.00101367
-0.25 -0.0499756 0.00101268
-0.24375 -0.049975 0.00101227
-0.2375 -0.0499736 0.00101156
-0.23125 -0.0499722 0.00101084
-0.225 -0.0499708 0.00101012
-0.21875 -0.0499694 0.00100941
-0.2125 -0.0499678 0.00100926
-0.20625 -0.0499661 0.00100889
-0.2 -0.0499644 0.00100852
-0.19375 -0.0499627 0.00100814
-0.1875 -0.0499611 0.00100777
-0.18125 -0.0499603 0.001008
-0.175 -0.0499583 0.00100808
-0.16875 -0.0499563 0.00100817
-0.1625 -0.0499543 0.00100825
-0.15625 -0.0499523 0.00100834
-0.153125 -0.0499512 0.00100851
-0.15 -0.0499489 0.00100878
-0.146875 -0.0499466 0.00100906
-0.14375 -0.0499444 0.00100933
-0.140625 -0.0499421 0.0010096
-0.1375 -0.0499401 0.00100988
-0.134374 -0.0499376 0.00101036
-0.131249 -0.049935 0.00101084
-0.128124 -0.0499324 0.00101132
-0.124999 -0.0499298 0.00101179
-0.121874 -0.0499284 0.00101219
-0.118749 -0.0499255 0.00101284
-0.115624 -0.0499226 0.00101349
-0.112499 -0.0499197 0.00101414
-0.109374 -0.0499169 0.00101479
-0.106249 -0.0499147 0.00101533
-0.103124 -0.0499115 0.0010161
-0.0999989 -0.0499084 0.00101688
-0.0968739 -0.0499053 0.00101766
-0.0937488 -0.0499022 0.00101843
-0.0906239 -0.0499006 0.00101906
-0.0874989 -0.0498972 0.00101996
-0.0843739 -0.0498938 0.00102085
-0.0812489 -0.0498905 0.00102174
-0.0781239 -0.0498871 0.00102264
-0.0749989 -0.0498847 0.0010234
-0.0718739 -0.0498811 0.0010244
-0.0687489 -0.0498775 0.0010254
-0.0656238 -0.049874 0.00102641
-0.0624988 -0.0498704 0.00102741
-0.0593738 -0.0498686 0.00102825
-0.0562488 -0.0498648 0.00102936
-0.0531238 -0.049861 0.00103047
-0.0499988 -0.0498571 0.00103159
-0.0468738 -0.0498533 0.0010327
-0.0437488 -0.0498506 0.00103366
-0.0406238 -0.0498466 0.00103488
-0.0374988 -0.0498426 0.0010361
-0.0343738 -0.0498385 0.00103732
-0.0312488 -0.0498345 0.00103854
-0.0281239 -0.0498325 0.00103958
-0.0249989 -0.0498282 0.0010409
-0.0218739 -0.049824 0.00104222
-0.018749 -0.0498197 0.00104354
-0.015624 -0.0498154 0.00104486
-0.012499 -0.0498125 0.00104602
-0.00937393 -0.049808 0.00104743
-0.00624889 -0.0498035 0.00104885
-0.00312386 -0.049799 0.00105027
1.18318e-06 -0.0497945 0.00105169
0.00312621 -0.0497923 0.00105293
0.00625124 -0.0497876 0.00105444
0.00937627 -0.0497829 0.00105595
0.0125013 -0.0497781 0.00105747
0.0156263 -0.0497734 0.00105899
0.0187516 -0.0497702 0.00106033
0.0218768 -0.0497652 0.00106193
0.025002 -0.0497603 0.00106353
0.0281273 -0.0497553 0.00106514
0.0312525 -0.0497504 0.00106675
0.0343793 -0.049748 0.00106817
0.037506 -0.0497428 0.00106986
0.0406327 -0.0497377 0.00107156
0.0437595 -0.0497325 0.00107325
0.0468862 -0.0497273 0.00107495
0.050011 -0.0497238 0.00107647
0.0531358 -0.0497184 0.00107825
0.0562606 -0.049713 0.00108002
0.0593853 -0.0497076 0.0010818
0.0625101 -0.0497022 0.00108359
0.065635 -0.0496997 0.00108518
0.0687598 -0.049694 0.00108703
0.0718846 -0.0496884 0.00108889
0.0750094 -0.0496828 0.00109076
0.0781342 -0.0496771 0.00109262
0.0812601 -0.0496734 0.0010943
0.084386 -0.0496676 0.00109623
0.0875119 -0.0496617 0.00109817
0.0906377 -0.0496559 0.00110011
0.0937636 -0.04965 0.00110206
0.0968915 -0.0496473 0.0011038
0.100019 -0.0496412 0.00110581
0.103147 -0.0496352 0.00110782
0.106275 -0.0496291 0.00110984
0.109403 -0.049623 0.00111186
0.112529 -0.049619 0.00111368
0.115655 -0.0496127 0.00111576
0.118781 -0.0496065 0.00111784
0.121907 -0.0496002 0.00111993
0.125032 -0.0495939 0.00112202
0.128157 -0.049591 0.00112389
0.131283 -0.0495845 0.00112604
0.134408 -0.049578 0.00112818
0.137533 -0.0495715 0.00113033
0.140658 -0.049565 0.00113249
0.143784 -0.0495608 0.00113443
0.146909 -0.0495541 0.00113663
0.150035 -0.0495474 0.00113884
0.153161 -0.0495407 0.00114105
0.156287 -0.049534 0.00114327
0.159413 -0.0495309 0.00114526
0.16254 -0.0495241 0.00114752
0.165667 -0.0495172 0.00114979
0.168794 -0.0495102 0.00115206
0.171921 -0.0495033 0.00115433
0.175047 -0.0494989 0.00115637
0.178172 -0.0494918 0.00115869
0.181298 -0.0494847 0.001161
0.184424 -0.0494776 0.00116333
0.18755 -0.0494704 0.00116565
0.190674 -0.0494672 0.00116774
0.193799 -0.0494599 0.0011701
0.196923 -0.0494526 0.00117246
0.200048 -0.0494453 0.00117483
0.203172 -0.049438 0.0011772
0.206296 -0.0494334 0.00117933
0.209421 -0.0494259 0.00118173
0.212545 -0.0494184 0.00118413
0.215669 -0.0494109 0.00118654
0.218794 -0.0494034 0.00118895
0.221919 -0.0494001 0.00119112
0.225045 -0.0493924 0.00119356
0.22817 -0.0493848 0.001196
0.231296 -0.0493771 0.00119845
0.234421 -0.0493694 0.0012009
0.237548 -0.0493646 0.0012031
0.240674 -0.0493568 0.00120557
0.2438 -0.0493489 0.00120804
0.246927 -0.0493411 0.00121053
0.250053 -0.0493332 0.00121301
0.25318 -0.0493297 0.00121524
0.256307 -0.0493217 0.00121775
0.259434 -0.0493137 0.00122025
0.262561 -0.0493057 0.00122277
0.265688 -0.0492977 0.00122529
0.268813 -0.0492926 0.00122753
0.271938 -0.0492845 0.00123006
0.275062 -0.0492764 0.00123259
0.278187 -0.0492682 0.00123513
0.281312 -0.04926 0.00123767
0.284435 -0.0492564 0.00123994
0.287558 -0.0492481 0.00124248
0.290681 -0.0492398 0.00124503
0.293804 -0.0492315 0.00124759
0.296927 -0.0492232 0.00125015
0.30005 -0.049218 0.00125242
0.303174 -0.0492096 0.00125498
0.306297 -0.0492012 0.00125755
0.309421 -0.0491928 0.00126011
0.312544 -0.0491843 0.00126269
0.315668 -0.0491806 0.00126499
0.318793 -0.0491721 0.00126756
0.321917 -0.0491635 0.00127013
0.325041 -0.049155 0.00127272
0.328166 -0.0491464 0.0012753
0.331291 -0.049141 0.0012776
0.334416 -0.0491324 0.00128017
0.337541 -0.0491237 0.00128276
0.340666 -0.049115 0.00128535
0.343791 -0.0491063 0.00128794
0.346916 -0.0491025 0.00129026
0.350042 -0.0490937 0.00129284
0.353168 -0.0490849 0.00129543
0.356294 -0.0490761 0.00129803
0.35942 -0.0490673 0.00130063
0.362549 -0.0490618 0.00130293
0.365679 -0.0490529 0.00130553
0.368808 -0.049044 0.00130812
0.371938 -0.0490351 0.00131073
0.375068 -0.0490262 0.00131333
0.378205 -0.0490222 0.00131566
0.381343 -0.0490132 0.00131826
0.384481 -0.0490042 0.00132086
0.387619 -0.0489952 0.00132347
0.390756 -0.0489861 0.00132608
0.393889 -0.0489805 0.00132838
0.397022 -0.0489714 0.00133097
0.400155 -0.0489624 0.00133356
0.403288 -0.0489533 0.00133616
0.406421 -0.0489441 0.00133876
0.409551 -0.0489401 0.00134107
0.412682 -0.048931 0.00134366
0.415813 -0.0489218 0.00134624
0.418943 -0.0489127 0.00134883
0.422074 -0.0489035 0.00135143
0.425204 -0.0488978 0.00135371
0.428334 -0.0488885 0.00135629
0.431464 -0.0488793 0.00135887
0.434594 -0.0488701 0.00136145
0.437724 -0.0488608 0.00136404
0.440854 -0.0488567 0.00136633
0.443984 -0.0488474 0.0013689
0.447114 -0.0488381 0.00137146
0.450244 -0.0488288 0.00137404
0.453374 -0.0488194 0.00137662
0.456504 -0.0488137 0.00137888
0.459634 -0.0488043 0.00138143
0.462763 -0.0487949 0.00138399
0.465893 -0.0487855 0.00138655
0.469023 -0.0487761 0.00138912
0.472152 -0.048772 0.00139138
0.475282 -0.0487626 0.00139392
0.478411 -0.0487532 0.00139646
0.481541 -0.0487437 0.00139901
0.48467 -0.0487343 0.00140156
0.4878 -0.0487284 0.00140379
0.490929 -0.048719 0.00140631
0.494058 -0.0487095 0.00140884
0.497187 -0.0487 0.00141137
0.500317 -0.0486905 0.00141391
0.503446 -0.0486863 0.00141614
0.506575 -0.0486768 0.00141864
0.509704 -0.0486673 0.00142115
0.512833 -0.0486578 0.00142367
0.515962 -0.0486482 0.00142618
0.519091 -0.0486423 0.00142838
0.52222 -0.0486328 0.00143086
0.525348 -0.0486232 0.00143335
0.528477 -0.0486137 0.00143584
0.531606 -0.0486041 0.00143834
0.534734 -0.0485999 0.00144053
0.537863 -0.0485903 0.001443
0.540992 -0.0485807 0.00144547
0.54412 -0.0485711 0.00144794
0.547249 -0.0485615 0.00145041
0.550377 -0.0485556 0.00145257
0.553506 -0.048546 0.00145501
0.556634 -0.0485364 0.00145745
0.559762 -0.0485268 0.0014599
0.562891 -0.0485171 0.00146235
0.566019 -0.0485129 0.0014645
0.569147 -0.0485033 0.00146692
0.572275 -0.0484937 0.00146934
0.575403 -0.0484841 0.00147177
0.578532 -0.0484744 0.0014742
0.58166 -0.0484684 0.0014763
0.584788 -0.0484588 0.0014787
0.587915 -0.0484492 0.00148109
0.591043 -0.0484396 0.00148349
0.594171 -0.0484299 0.00148589
0.597299 -0.0484257 0.001488
0.600427 -0.0484161 0.00149038
0.603555 -0.0484064 0.00149276
0.606683 -0.0483968 0.00149514
[...]
POINT_DATA 15205
 FIELD attributes 2
p 1 15205 float
-4.95159 -4.95316 -4.95473 -4.9563 -4.95787 -4.95944 -5.47199 -5.98381 -6.50602 -7.02824 -7.54746 -8.43982 -9.33714 -10.2344 -11.1298 -11.9829 -12.559 -13.1487 -13.7383 -14.328 -14.9857 -15.8176 -16.6412 -17.4648 -18.2885 -19.1089 -20.0644 -21.0176 -21.9707 -22.9239 -23.883 -25.0494 -26.2066 -27.3639 -28.5211 -29.6812 -31.0816 -32.4819 -33.8821 -35.2824 -36.6989 -38.3585 -40.0086 -41.6588 -43.3089 -44.9702 -46.8001 -48.6309 -50.4617 -52.2924 -54.4303 -55.2554 -56.1152 -57.078 -58.0408 -59.0217 -59.9198 -60.8158 -61.7118 -62.6207 -63.5261 -64.2733 -65.0219 -65.7592 -66.4964 -67.2366 -67.8675 -68.5063 -69.1452 -69.7907 -70.4452 -70.9773 -71.5099 -72.0235 -72.5265 -72.9909 -73.0915 -73.2485 -73.4055 -73.5625 -73.7833 -73.9254 -74.0793 -74.2333 -74.3872 -74.5694 -74.6666 -74.7742 -74.8818 -74.9894 -75.1214 -75.1822 -75.2432 -75.3042 -75.3652 -75.4315 -75.4439 -75.4585 -75.4731 -75.4877 -75.5063 -75.475 -75.4431 -75.4113 -75.3794 -75.3485 -75.2715 -75.1945 -75.1175 -75.0405 -74.9645 -74.8464 -74.7264 -74.6064 -74.4864 -74.3657 -74.2061 -74.0453 -73.8845 -73.7237 -73.5628 -73.3661 -73.1666 -72.9671 -72.7676 -72.5666 -72.3324 -72.0964 -71.8604 -71.6244 -71.3879 -71.1215 -70.8514 -70.5813 -70.3112 -70.0393 -69.7398 -69.4382 -69.1367 -68.8351 -68.533 -68.2071 -67.8771 -67.5472 -67.2172 -66.8854 -66.5323 -66.177 -65.8216 -65.4663 -65.1107 -64.7371 -64.3593 -63.9815 -63.6037 -63.2241 -62.8292 -62.4321 -62.035 -61.6379 -61.2405 -60.8318 -60.4189 -60.006 -59.5932 -59.1785 -58.7549 -58.3292 -57.9034 -57.4777 -57.0516 -56.6196 -56.1835 -55.7473 -55.3112 -54.8734 -54.4317 -53.9879 -53.5441 -53.1003 -52.6563 -52.2114 -51.7627 -51.314 -50.8653 -50.4151 -49.9661 -49.5151 -49.064 -48.613 -48.1618 -47.7142 -47.2629 -46.8117 -46.3604 -45.9077 -45.4601 -45.0106 -44.5611 -44.1115 -43.6617 -43.2192 -42.7733 -42.3273 -41.8814 -41.4341 -40.9955 -40.5552 -40.1148 -39.6744 -39.2339 -38.804 -38.3711 -37.9382 -37.5052 -37.0711 -36.6487 -36.2245 -35.8003 -35.3761 -34.9516 -34.54 -34.1255 -33.7109 -33.2964 -32.8806 -32.4784 -32.0743 -31.6702 -31.2662 -30.8615 -30.4714 -30.0786 -29.6858 -29.293 -28.899 -28.5199 -28.1391 -27.7582 -27.3774 -26.9959 -26.6298 -26.2613 -25.8928 -25.5242 -25.1546 -24.8004 -24.4444 -24.0885 -23.7325 -23.3759 -23.0359 -22.6937 -22.3516 -22.0094 -21.666 -21.3396 -21.0115 -20.6834 -20.3553 -20.0264 -19.7146 -19.4006 -19.0867 -18.7727 -18.4576 -18.1594 -17.8595 -17.5596 -17.2596 -16.9588 -16.6749 -16.3889 -16.1029 -15.8169 -15.5296 -15.2591 -14.9869 -14.7146 -14.4423 -14.169 -13.9122 -13.6534 -13.3946 -13.1358 -12.8757 -12.6319 -12.3864 -12.1408 -11.8953 -11.6485 -11.4178 -11.1851 -10.9524 -10.7198 -10.4857 -10.2673 -10.047 -9.82676 -9.60651 -9.38491 -9.17851 -8.96999 -8.76146 -8.55293 -8.34283 -8.14715 -7.94909 -7.75103 -7.55297 -7.3533 -7.16762 -6.97894 -6.79026 -6.60157 -6.41109 -6.2349 -6.05869 -5.88248 -5.70627 -5.53041 -5.36798 -5.20658 -5.04518 -4.88379 -4.72333 -4.5736 -4.42368 -4.27375 -4.12382 -3.97385 -3.83328 -3.69143 -3.54959 -3.40775 -3.26517 -3.13273 -3.00095 -2.86918 -2.7374 -2.6064 -2.48671 -2.369 -2.25129 -2.13358 -2.01693 -1.91022 -1.80153 -1.69283 -1.58414 -1.4728 -1.37025 -1.2646 -1.15895 -1.0533 -0.944642 -0.846124 -0.745427 -0.644725 -0.544014 -0.441456 -0.349544 -0.25602 -0.162497 -0.0689738 0.0258615 0.110796 0.197083 0.283371 0.369658 0.457139 0.535476 0.615092 0.694708 0.774324 0.855063 0.927341 1.00071 1.07408 1.14745 1.22183 1.28828 1.35579 1.42329 1.49079 1.55927 1.62037 1.68238 1.74439 1.8064 1.8693 1.9253 1.98218 2.03907 2.09596 2.15373 2.20503 2.25711 2.3092 2.36129 2.41413 2.46095 2.50858 2.5562 2.60383 2.65225 2.69499 2.73842 2.78184 2.82526 2.86936 2.90805 2.94741 2.98676 3.02611 3.06614 3.10094 3.13627 3.17159 3.20691 3.24279 3.27363 3.30501 3.33639 3.36777 3.39969 3.42693 3.45466 3.48239 3.51012 3.53843 3.56204 3.58547 3.60891 3.63235 3.65593 3.67485 3.69426 3.71368 3.73309 3.75445 3.77239 3.79124 3.81008 3.82893 3.84762 3.87551 3.91481 3.95266 3.98947 4.0247 4.04891 4.07456 4.09892 4.12172 4.14639 4.15926 4.17098 4.18363 4.19713 4.21218 4.22516 4.24694 4.26777 4.2876 4.31576 4.34563 4.39282 4.44656 4.5003 4.54558 4.5694 4.59137 4.61415 4.63693 4.65483 4.66736 4.67562 4.68389 4.69149 4.6929 4.6806 4.6659 4.65173 4.63756 4.61892 4.58047 4.53797 4.49548 4.45134 4.39994 4.34841 4.31334 4.28147 4.2496 4.2232 4.05211 4.04583 4.03836 4.03088 4.01733 4.03122 4.03344 4.03566 4.03999 4.03226 3.96842 3.88537 3.76577 3.64618 3.5148 3.28014 3.03977 2.7994 2.62197 2.44949 2.25626 2.08534 1.91441 1.70495 1.62936 1.80399 1.97433 2.14468 2.31502 2.30006 2.22408 2.14366 2.06324 1.98282 1.89358 1.59186 1.29553 0.999209 0.702886 0.500593 0.285325 0.091549 -0.102229 -0.296009 -0.383633 -0.210088 -0.0324609 0.145163 0.322785 0.436424 0.597743 0.764569 0.931395 1.09822 1.25514 1.35497 1.44191 1.52884 1.61577 1.6929 1.64148 1.57822 1.51497 1.45171 1.31535 1.17545 1.02616 0.876875 0.727591 0.598873 0.517639 0.431936 0.346235 0.260533 0.188653 0.175072 0.158814 0.142556 0.126298 0.113374 0.112981 0.110446 0.10791 0.105375 0.103716 0.101219 0.097017 0.0928156 0.0886143 0.0851582 0.0830336 0.0795892 0.076145 0.0727009 0.0697591 0.0687762 0.066709 0.0646419 0.0625748 0.0608318 0.0612405 0.0607938 0.0603472 0.0599006 0.0598142 0.0545788 0.0484919 0.0424361 0.0364121 0.0313771
-4.76315 -4.76471 -4.76626 -4.76782 -4.76937 -4.77093 -5.29955 -5.82817 -6.34314 -6.79719 -7.25123 -8.03635 -8.82158 -9.65376 -10.9297 -12.1663 -12.633 -13.1342 -13.6354 -14.1366 -14.7978 -15.6293 -16.4288 -17.2282 -18.0277 -18.8189 -19.7952 -20.7483 -21.7015 -22.6547 -23.5924 -24.7509 -25.9273 -27.1038 -28.2803 -29.4705 -30.883 -32.3328 -33.7826 -35.2324 -36.6911 -38.3152 -40.0442 -41.7732 -43.5026 -45.2835 -47.1203 -49.1355 -51.1508 -53.1841 -55.6584 -56.5416 -57.424 -58.442 -59.3716 -60.2874 -61.3009 -62.305 -63.2249 -64.0394 -64.8412 -65.6687 -66.4948 -67.2955 -68.0361 -68.7712 -69.4686 -70.1653 -70.8541 -71.4974 -72.1361 -72.6943 -73.2512 -73.7887 -74.3503 -74.9192 -75.0379 -75.1925 -75.343 -75.4937 -75.7022 -75.8385 -75.9865 -76.1345 -76.2902 -76.4774 -76.5874 -76.6957 -76.7981 -76.9005 -77.0153 -77.0706 -77.1282 -77.1859 -77.2464 -77.3139 -77.3247 -77.3376 -77.3499 -77.3623 -77.3786 -77.3443 -77.3119 -77.2797 -77.2473 -77.2165 -77.1344 -77.054 -76.9749 -76.8958 -76.818 -76.6927 -76.5691 -76.4456 -76.3194 -76.1928 -76.0214 -75.8521 -75.6867 -75.5213 -75.3565 -75.1503 -74.9452 -74.7402 -74.5296 -74.318 -74.0668 -73.817 -73.5742 -73.3314 -73.0888 -72.8456 -72.6028 -72.3601 -72.1131 -71.8763 -71.8372 -71.7982 -71.7591 -71.72 -71.681 -71.3596 -71.0383 -70.7273 -70.4165 -70.1058 -69.7652 -69.4256 -69.0846 -68.7341 -68.3853 -68.0074 -67.6305 -67.2622 -66.8965 -66.5314 -66.1401 -65.7518 -65.3591 -64.9587 -64.562 -64.1403 -63.7205 -63.3068 -62.8987 -62.492 -62.0625 -61.6384 -61.207 -60.7709 -60.341 -59.8891 -59.4407 -58.995 -58.5579 -58.1236 -57.6682 -57.2211 -56.7636 -56.3047 -55.8552 -55.3842 -54.9185 -54.4527 -53.9975 -53.5472 -53.0759 -52.6143 -52.1435 -51.6726 -51.2142 -50.7343 -50.2621 -49.7899 -49.3241 -48.8688 -48.3917 -47.925 -47.4529 -46.9807 -46.5245 -46.045 -45.5761 -45.1071 -44.6408 -44.1903 -43.7161 -43.2533 -42.7885 -42.3237 -41.878 -41.407 -40.949 -40.4911 -40.0332 -39.5952 -39.1321 -38.6831 -38.2341 -37.7851 -37.3524 -36.9011 -36.4618 -36.0224 -35.5829 -35.1549 -34.7162 -34.287 -33.858 -33.429 -33.0086 -32.5845 -32.1671 -31.7497 -31.3318 -30.9177 -30.5076 -30.1019 -29.6967 -29.2915 -28.8871 -28.7961 -28.7058 -28.6155 -28.5252 -28.4351 -28.1323 -27.8295 -27.5268 -27.2231 -26.9197 -26.5366 -26.1557 -25.7754 -25.3951 -25.0155 -24.6462 -24.2801 -23.914 -23.5472 -23.1819 -22.8255 -22.4736 -22.1224 -21.7712 -21.422 -21.0797 -20.7433 -20.4068 -20.0697 -19.7356 -19.4069 -19.0845 -18.7629 -18.4413 -18.1228 -17.8087 -17.501 -17.1941 -16.8872 -16.5834 -16.2845 -15.9898 -15.6975 -15.4065 -15.1175 -14.8333 -14.5523 -14.2743 -13.998 -13.7233 -13.4538 -13.1859 -12.9221 -12.6609 -12.4007 -12.1452 -11.8903 -11.6403 -11.3933 -11.1467 -10.9053 -10.6639 -10.4275 -10.1948 -9.9621 -9.7339 -9.5057 -9.28219 -9.06232 -8.84246 -8.62766 -8.41285 -8.20211 -7.99532 -7.78854 -7.58593 -7.38332 -7.18475 -6.98994 -6.79513 -6.60511 -6.4151 -6.22882 -6.04643 -5.86405 -5.68551 -5.50697 -5.33243 -5.16135 -4.99026 -4.82376 -4.65772 -4.49475 -4.33473 -4.17538 -4.01949 -3.86472 -3.7127 -3.56265 -3.41365 -3.26884 -3.12557 -2.98401 -2.84398 -2.70576 -2.5704 -2.43734 -2.30566 -2.17478 -2.04581 -1.92039 -1.79735 -1.67495 -1.55292 -1.4336 -1.31631 -1.20248 -1.08878 -0.975021 -0.863656 -0.755316 -0.649664 -0.544086 -0.438528 -0.335202 -0.234499 -0.136595 -0.0386848 0.059278 0.155783 0.248279 0.338926 0.429514 0.520095 0.609474 0.694658 0.778262 0.861866 0.94556 1.02865 1.10658 1.18373 1.26074 1.33774 1.41447 1.46083 1.50681 1.55279 1.59877 1.64522 1.67022 1.69522 1.72022 1.74522 1.7697 1.83592 1.90167 1.96721 2.03276 2.09649 2.15819 2.21832 2.27845 2.33879 2.39579 2.45388 2.5091 2.5641 2.61909 2.66974 2.7237 2.77391 2.82413 2.87452 2.91894 2.96997 3.01586 3.06161 3.10736 3.1464 3.19375 3.23535 3.27696 3.31868 3.35204 3.39704 3.4349 3.47262 3.50967 3.53921 3.57995 3.615 3.64907 3.68128 3.70685 3.74472 3.7776 3.80829 3.83605 3.85877 3.89283 3.9225 3.94959 3.97365 3.99259 4.02417 4.05035 4.07449 4.09641 4.11302 4.14183 4.16547 4.18722 4.2066 4.22055 4.25142 4.27072 4.2861 4.29881 4.3004 4.33664 4.36354 4.39205 4.42423 4.4469 4.48125 4.50697 4.53268 4.55881 4.58039 4.61064 4.632 4.65203 4.67206 4.68844 4.70501 4.71697 4.72893 4.74089 4.75493 4.78157 4.80821 4.8115 4.77544 4.73938 4.82939 4.9194 4.94242 4.89924 4.85604 4.9274 4.99875 5.00428 4.94165 4.87903 4.94272 5.0064 4.99454 4.90712 4.81968 4.85604 4.89241 4.86124 4.76038 4.65952 4.72867 4.79782 4.75306 4.60273 4.45239 4.36069 4.28521 4.22835 4.17148 4.09057 4.22571 4.23961 4.25336 4.26711 4.1512 4.20127 4.09173 3.98221 3.87883 3.68005 3.52086 3.33255 3.13486 2.93716 2.73202 2.28924 1.88111 1.52504 1.3241 1.30378 1.51784 1.68341 1.95473 2.3603 2.59988 2.72596 2.75491 2.74106 2.66624 2.51137 2.17251 1.88312 1.59615 1.30991 1.08166 0.722796 0.545609 -0.0166462 -0.502065 -0.610842 -0.465172 -0.289859 -0.114576 0.0285225 0.120034 0.193635 0.239118 0.397845 0.556532 0.66437 0.81067 0.888878 0.967047 1.05099 1.07799 1.05469 0.979038 0.903165 0.996138 1.0586 1.07478 0.924939 0.774644 0.624348 0.456002 0.45561 0.371367 0.285164 0.198959 0.106838 0.125072 0.109826 0.0932052 0.076584 0.0546881 0.0729233 0.0712337 0.0684145 0.0655949 0.0582009 0.0694783 0.0661822 0.0617656 0.0573486 0.049613 0.0570599 0.0544244 0.0508143 0.0472038 0.0412004 0.0474393 0.0461315 0.0439338 0.0417359 0.037705 0.0440853 0.0444288 0.0438831 0.0433372 0.0415083 0.04805 0.044072 0.0379034 0.031725 0.0247653
-4.57071 -4.57221 -4.57371 -4.57521 -4.57671 -4.57821 -5.09254 -5.56553 -6.03858 -6.50975 -6.96825 -7.77672 -8.65862 -9.54054 -10.3649 -11.505 -12.0095 -12.5273 -13.0451 -13.5545 -14.1523 -14.9649 -15.7458 -16.4994 -17.2532 -17.9996 -18.9719 -19.9206 -20.8695 -21.8224 -22.7634 -23.9598 -25.1509 -26.3697 -27.5886 -28.7999 -30.2933 -31.8668 -33.4404 -34.9193 -36.4627 -38.2819 -40.053 -42.0076 -43.9605 -45.8436 -47.9067 -50.2056 -52.5122 -54.8062 -57.5963 -58.4984 -59.4386 -60.3744 -61.2678 -62.4669 -63.5963 -64.6424 -65.6677 -66.6961 -67.7814 -68.7779 -69.6902 -70.5988 -71.521 -72.5206 -73.3724 -74.1641 -74.9479 -75.7343 -76.5838 -77.2825 -77.8959 -78.5098 -79.2666 -79.9715 -80.1203 -80.3078 -80.4932 -80.674 -80.9072 -81.0723 -81.2602 -81.4426 -81.6219 -81.8252 -81.955 -82.088 -82.2254 -82.3682 -82.5144 -82.5992 -82.6853 -82.7688 -82.8491 -82.9325 -82.9508 -82.9716 -82.994 -83.0177 -83.0428 -83.0149 -82.9866 -82.9592 -82.9331 -82.9081 -82.8245 -82.7431 -82.6568 -82.5691 -82.4828 -82.341 -82.1984 -82.0568 -81.9249 -81.7934 -81.6123 -81.4328 -81.241 -81.0494 -80.8595 -80.6193 -80.3781 -80.1373 -79.9109 -79.6887 -79.4236 -79.1536 -78.8724 -78.5915 -78.3112 -78.1722 -78.0331 -77.8941 -77.7551 -77.6201 -77.4366 -77.2532 -77.0733 -76.8987 -76.724 -76.3855 -76.0315 -75.6717 -75.3122 -74.9542 -74.5624 -74.1707 -73.7791 -73.3878 -73.0148 -72.6099 -72.1884 -71.7671 -71.346 -70.9287 -70.4843 -70.0398 -69.5956 -69.1515 -68.7141 -68.2509 -67.7857 -67.3212 -66.8568 -66.3942 -66.241 -66.0877 -65.9345 -65.7813 -65.632 -65.3046 -64.9774 -64.6502 -64.3231 -63.9955 -63.4972 -63.0049 -62.5128 -62.0208 -61.5281 -61.0157 -60.515 -60.0144 -59.514 -59.0062 -58.4761 -57.9674 -57.4588 -56.9503 -56.4416 -55.9152 -55.4042 -54.8934 -54.374 -53.8535 -53.3151 -52.7906 -52.2777 -51.7649 -51.2522 -50.7232 -50.2124 -49.7016 -49.1686 -48.6536 -48.122 -47.595 -47.0836 -46.5763 -46.0704 -45.5503 -45.0508 -44.5394 -44.0184 -43.5189 -43.004 -42.4941 -41.9855 -41.4933 -41.0024 -40.4984 -40.0114 -39.5104 -39.0113 -38.5317 -38.0383 -37.5503 -37.0631 -36.5812 -36.1128 -35.6329 -35.1585 -34.6852 -34.2118 -33.7554 -33.2901 -32.8311 -32.3721 -31.9124 -31.4611 -31.0123 -30.5671 -30.1226 -29.6781 -29.2352 -29.132 -29.0295 -28.9269 -28.8244 -28.7221 -28.3943 -28.0666 -27.7389 -27.4097 -27.0824 -26.6619 -26.2473 -25.8336 -25.4199 -25.0098 -24.6012 -24.2046 -23.8081 -23.4105 -23.0204 -22.6248 -22.2425 -21.8633 -21.4864 -21.1138 -20.7366 -20.3659 -20.004 -19.6471 -19.2925 -18.9333 -18.5757 -18.2316 -17.8933 -17.5563 -17.2151 -16.8757 -16.5462 -16.225 -15.9053 -15.5817 -15.2584 -14.944 -14.6412 -14.3387 -14.0321 -13.7266 -13.4294 -13.1405 -12.8545 -12.5648 -12.2799 -11.9994 -11.722 -11.4525 -11.1787 -10.9126 -10.6484 -10.3844 -10.1296 -9.87407 -9.62602 -9.37776 -9.12891 -8.88548 -8.64812 -8.41468 -8.18172 -7.94898 -7.71707 -7.6692 -7.62203 -7.57487 -7.52771 -7.48044 -7.30815 -7.13585 -6.96306 -6.79028 -6.62028 -6.41113 -6.2049 -5.99897 -5.79329 -5.59395 -5.39481 -5.20268 -5.0103 -4.81769 -4.6347 -4.44702 -4.26644 -4.08707 -3.91115 -3.74212 -3.56647 -3.39501 -3.22796 -3.06715 -2.90964 -2.74687 -2.58468 -2.42948 -2.28468 -2.13988 -1.98797 -1.83599 -1.69273 -1.55808 -1.42345 -1.28331 -1.14318 -1.01135 -0.888191 -0.765045 -0.634351 -0.503789 -0.382991 -0.268245 -0.154114 -0.0341412 0.0828147 0.194013 0.301397 0.405379 0.517291 0.622745 0.72503 0.826411 0.922728 1.02512 1.11908 1.21299 1.3069 1.3956 1.48801 1.57399 1.65996 1.74596 1.82968 1.9112 1.98977 2.06824 2.14671 2.22491 2.23352 2.24178 2.25005 2.25832 2.2666 2.33096 2.39532 2.45968 2.52417 2.58589 2.6543 2.72063 2.78683 2.85301 2.91428 2.97782 3.03792 3.09801 3.15823 3.2099 3.27033 3.32512 3.3795 3.4321 3.47865 3.53251 3.58346 3.63216 3.67712 3.71747 3.76745 3.81261 3.85624 3.89742 3.93405 3.97815 4.01896 4.05782 4.09288 4.12401 4.16486 4.19953 4.23329 4.26656 4.29463 4.33013 4.36204 4.39106 4.41862 4.44194 4.47483 4.50081 4.52563 4.55163 4.57225 4.60028 4.62342 4.6446 4.6655 4.68185 4.70776 4.72603 4.74403 4.76238 4.77625 4.79745 4.81241 4.8271 4.8418 4.85304 4.87074 4.88226 4.89378 4.90529 4.91505 4.92714 4.93415 4.94117 4.94818 4.95423 4.97794 5.00255 5.01841 5.02807 5.03534 5.05858 5.07688 5.08745 5.09698 5.10156 5.11155 5.11321 5.11488 5.12166 5.12485 5.1292 5.12801 5.12366 5.11931 5.1114 5.08481 5.02154 4.98906 4.98106 4.96464 4.99511 5.00574 5.01482 5.02227 5.0269 5.02916 5.02759 5.02603 5.02447 5.0229 5.02264 5.02238 5.02463 5.0269 5.00367 5.00614 4.98772 4.96687 4.94419 4.87431 4.87231 4.83051 4.79159 4.75722 4.64649 4.65734 4.6228 4.57664 4.5175 4.38413 4.2498 4.18586 4.11926 4.03657 3.87104 4.1959 4.27315 4.31605 4.32506 4.1197 4.29008 4.19345 4.06702 3.92074 3.52133 3.56389 3.20181 2.83975 2.48338 2.05294 1.7002 1.51199 1.32383 1.13571 1.01701 1.03152 1.03935 1.04718 1.05501 1.09857 1.4707 1.84302 2.21553 2.58823 2.58766 3.212 3.29732 3.32873 3.26928 2.5929 2.92273 2.60318 2.28394 1.96502 1.29792 0.498847 -0.209566 -0.453487 -0.696291 -0.827037 -0.67989 -0.525524 -0.407396 -0.289199 -0.197585 -0.138472 -0.152872 -0.167263 -0.120226 -0.0143506 0.116729 0.192709 0.270971 0.349775 0.375583 0.333991 0.428536 0.542616 0.658927 0.72382 0.736667 0.723057 0.58794 0.436845 0.268879 0.266917 0.254231 0.179706 0.0930467 0.000838874 0.0181629 0.0287189 0.0176226 0.000682326 -0.0212215 -0.00364125 0.00864645 0.00959482 0.0065321 -0.000852759 0.00995095 0.0168728 0.0158444 0.0112408 0.0034872 0.0105946 0.014901 0.01404 0.0102827 0.00424256 0.0102292 0.0140742 0.0142739 0.0119598 0.00788762 0.0140843 0.0187408 0.0205239 0.0198884 0.0180153 0.0244222 0.0296288 0.0292009 0.0230027 0.01605