# vtk DataFile Version 2.0
track0
ASCII
DATASET POLYDATA
POINTS 15780 float
-1.001 -0.05 0.0011
-1.0008 -0.05 0.0011
-1.0006 -0.05 0.0011
-1.0004 -0.05 0.0011
-1.0002 -0.05 0.0011
-1 -0.05 0.0011
-0.9875 -0.05 0.0011
-0.975 -0.05 0.0011
-0.9625 -0.05 0.0011
-0.95 -0.05 0.0011
-0.9375 -0.05 0.00109999
-0.925 -0.05 0.00109999
-0.9125 -0.05 0.00109999
-0.9 -0.05 0.00109999
-0.8875 -0.05 0.00109999
-0.875 -0.05 0.00109999
-0.8625 -0.05 0.00109999
-0.85 -0.05 0.00109999
-0.8375 -0.05 0.00109998
-0.825 -0.0500001 0.00109998
-0.8125 -0.0500001 0.00109998
-0.8 -0.0500001 0.00109998
-0.7875 -0.0500001 0.00109998
-0.775 -0.0500001 0.00109998
-0.7625 -0.0500001 0.00109998
-0.75 -0.0500001 0.00109998
-0.7375 -0.0500001 0.00109997
-0.725 -0.0500001 0.00109997
-0.7125 -0.0500001 0.00109997
-0.7 -0.0500001 0.00109997
-0.6875 -0.0500001 0.00109997
-0.675 -0.0500001 0.00109997
-0.6625 -0.0500001 0.00109997
-0.65 -0.0500001 0.00109996
-0.6375 -0.0500001 0.00109996
-0.625 -0.0500001 0.00109996
-0.6125 -0.0500001 0.00109996
-0.6 -0.0500001 0.00109996
-0.5875 -0.0500001 0.00109996
-0.575 -0.0500001 0.00109996
-0.5625 -0.0500001 0.00109996
-0.55 -0.0500001 0.00109995
-0.5375 -0.0500001 0.00109995
-0.525 -0.0500001 0.00109995
-0.5125 -0.0500001 0.00109995
-0.5 -0.0500001 0.00109995
-0.4875 -0.0500001 0.00109995
-0.475 -0.0500001 0.00109995
-0.4625 -0.0500001 0.00109994
-0.45 -0.0500002 0.00109994
-0.4375 -0.0500002 0.00109994
-0.425 -0.0500002 0.00109994
-0.4125 -0.0500002 0.00109994
-0.4 -0.0500002 0.00109994
-0.3875 -0.0500002 0.00109994
-0.375 -0.0500002 0.00109994
-0.3625 -0.0500002 0.00109993
-0.35 -0.0500002 0.00109993
-0.3375 -0.0500002 0.00109993
-0.325 -0.0500002 0.00109993
-0.3125 -0.0500002 0.00109993
-0.3 -0.0500002 0.00109993
-0.2875 -0.0500002 0.00109993
-0.275 -0.0500002 0.00109993
-0.2625 -0.0500002 0.00109992
-0.25 -0.0500002 0.00109992
-0.2375 -0.0500002 0.00109992
-0.225 -0.0500002 0.00109992
-0.2125 -0.0500002 0.00109992
-0.2 -0.0500002 0.00109992
-0.1875 -0.0500002 0.00109992
-0.175 -0.0500002 0.00109992
-0.1625 -0.0500002 0.00109991
-0.15 -0.0500002 0.00109991
-0.1375 -0.0500002 0.00109991
-0.125 -0.0500002 0.00109991
-0.1125 -0.0500002 0.00109991
-0.1 -0.0500002 0.00109991
-0.0875 -0.0500002 0.00109991
-0.075 -0.0500002 0.00109991
-0.0625 -0.0500002 0.00109991
-0.05 -0.0500003 0.00109991
-0.0375 -0.0500003 0.0010999
-0.025 -0.0500003 0.0010999
-0.0125 -0.0500003 0.0010999
2.10607e-13 -0.0500003 0.0010999
0.0125 -0.0500003 0.0010999
0.025 -0.0500003 0.0010999
0.0375 -0.0500003 0.0010999
0.05 -0.0500003 0.0010999
0.0625 -0.0500003 0.0010999
0.075 -0.0500003 0.0010999
0.0875 -0.0500003 0.0010999
0.1 -0.0500003 0.00109989
0.1125 -0.0500003 0.00109989
0.125 -0.0500003 0.00109989
0.1375 -0.0500003 0.00109989
0.15 -0.0500003 0.00109989
0.1625 -0.0500003 0.00109989
0.175 -0.0500003 0.00109989
0.1875 -0.0500003 0.00109989
0.2 -0.0500003 0.00109989
0.2125 -0.0500003 0.00109989
0.225 -0.0500003 0.00109989
0.2375 -0.0500003 0.00109989
0.25 -0.0500003 0.00109989
0.2625 -0.0500003 0.00109988
0.275 -0.0500003 0.00109988
0.2875 -0.0500003 0.00109988
0.3 -0.0500003 0.00109988
0.3125 -0.0500003 0.00109988
0.325 -0.0500003 0.00109988
0.3375 -0.0500003 0.00109988
0.35 -0.0500003 0.00109988
0.3625 -0.0500003 0.00109988
0.375 -0.0500003 0.00109988
0.3875 -0.0500003 0.00109988
0.4 -0.0500004 0.00109988
0.4125 -0.0500004 0.00109988
0.425 -0.0500004 0.00109988
0.4375 -0.0500004 0.00109988
0.45 -0.0500004 0.00109988
0.4625 -0.0500004 0.00109988
0.475 -0.0500004 0.00109988
0.4875 -0.0500004 0.00109988
0.5 -0.0500004 0.00109988
0.5125 -0.0500004 0.00109988
0.525 -0.0500004 0.00109988
0.5375 -0.0500004 0.00109988
0.55 -0.0500004 0.00109988
0.5625 -0.0500004 0.00109988
0.575 -0.0500004 0.00109987
0.5875 -0.0500004 0.00109987
0.6 -0.0500004 0.00109987
0.6125 -0.0500004 0.00109987
0.625 -0.0500004 0.00109987
0.6375 -0.0500004 0.00109987
0.65 -0.0500004 0.00109987
0.6625 -0.0500004 0.00109987
0.675 -0.0500004 0.00109987
0.6875 -0.0500004 0.00109987
0.7 -0.0500004 0.00109987
0.7125 -0.0500004 0.00109987
0.725 -0.0500004 0.00109987
0.7375 -0.0500004 0.00109987
0.75 -0.0500004 0.00109987
0.7625 -0.0500004 0.00109987
0.775 -0.0500004 0.00109987
0.7875 -0.0500004 0.00109987
0.8 -0.0500004 0.00109987
0.8125 -0.0500004 0.00109987
0.825 -0.0500004 0.00109987
0.8375 -0.0500004 0.00109987
0.85 -0.0500004 0.00109987
0.8625 -0.0500004 0.00109987
0.875 -0.0500004 0.00109987
0.8875 -0.0500004 0.00109987
0.9 -0.0500004 0.00109987
0.9125 -0.0500005 0.00109988
0.925 -0.0500005 0.00109988
0.9375 -0.0500005 0.00109988
0.95 -0.0500005 0.00109988
0.9625 -0.0500005 0.00109988
0.975 -0.0500005 0.00109988
0.9875 -0.0500005 0.00109988
1 -0.0500005 0.00109988
1.0125 -0.0500005 0.00109988
1.025 -0.0500005 0.00109988
1.0375 -0.0500005 0.00109988
1.05 -0.0500005 0.00109988
1.0625 -0.0500005 0.00109988
1.075 -0.0500005 0.00109988
1.0875 -0.0500005 0.00109988
1.1 -0.0500005 0.00109988
1.1125 -0.0500005 0.00109988
1.125 -0.0500005 0.00109988
1.1375 -0.0500005 0.00109988
1.15 -0.0500005 0.00109988
1.1625 -0.0500005 0.00109988
1.175 -0.0500005 0.00109988
1.1875 -0.0500005 0.00109988
1.2 -0.0500005 0.00109988
1.2125 -0.0500005 0.00109988
1.225 -0.0500005 0.00109988
1.2375 -0.0500005 0.00109989
1.25 -0.0500005 0.00109989
1.2625 -0.0500005 0.00109989
1.275 -0.0500005 0.00109989
1.2875 -0.0500005 0.00109989
1.3 -0.0500005 0.00109989
1.3125 -0.0500005 0.00109989
1.325 -0.0500005 0.00109989
1.3375 -0.0500005 0.00109989
1.35 -0.0500005 0.00109989
1.3625 -0.0500005 0.00109989
1.375 -0.0500005 0.00109989
1.3875 -0.0500005 0.00109989
1.4 -0.0500005 0.00109989
1.4125 -0.0500005 0.00109989
1.425 -0.0500005 0.00109989
1.4375 -0.0500005 0.0010999
1.45 -0.0500005 0.0010999
1.4625 -0.0500005 0.0010999
1.475 -0.0500005 0.0010999
1.4875 -0.0500005 0.0010999
1.5 -0.0500006 0.0010999
1.5125 -0.0500006 0.0010999
1.525 -0.0500006 0.0010999
1.5375 -0.0500006 0.0010999
1.55 -0.0500006 0.0010999
1.5625 -0.0500006 0.0010999
1.575 -0.0500006 0.0010999
1.5875 -0.0500006 0.0010999
1.6 -0.0500006 0.0010999
1.6125 -0.0500006 0.00109991
1.625 -0.0500006 0.00109991
1.6375 -0.0500006 0.00109991
1.65 -0.0500006 0.00109991
1.6625 -0.0500006 0.00109991
1.675 -0.0500006 0.00109991
1.6875 -0.0500006 0.00109991
1.7 -0.0500006 0.00109991
1.7125 -0.0500006 0.00109991
1.725 -0.0500006 0.00109991
1.7375 -0.0500006 0.00109991
1.75 -0.0500006 0.00109991
1.7625 -0.0500006 0.00109992
1.775 -0.0500006 0.00109992
1.7875 -0.0500006 0.00109992
1.8 -0.0500006 0.00109992
1.8125 -0.0500006 0.00109992
1.825 -0.0500006 0.00109992
1.8375 -0.0500006 0.00109992
1.85 -0.0500006 0.00109992
1.8625 -0.0500006 0.00109992
1.875 -0.0500006 0.00109992
1.8875 -0.0500006 0.00109992
1.9 -0.0500006 0.00109992
1.9125 -0.0500006 0.00109993
1.925 -0.0500006 0.00109993
1.9375 -0.0500006 0.00109993
1.95 -0.0500006 0.00109993
1.9625 -0.0500006 0.00109993
1.975 -0.0500006 0.00109993
1.9875 -0.0500006 0.00109993
2 -0.0500006 0.00109993
2.0125 -0.0500006 0.00109993
2.025 -0.0500006 0.00109993
2.0375 -0.0500006 0.00109993
2.05 -0.0500006 0.00109993
2.0625 -0.0500006 0.00109994
2.075 -0.0500006 0.00109994
2.0875 -0.0500006 0.00109994
2.1 -0.0500006 0.00109994
2.1125 -0.0500006 0.00109994
2.125 -0.0500006 0.00109994
2.1375 -0.0500006 0.00109994
2.15 -0.0500006 0.00109994
2.1625 -0.0500006 0.00109994
2.175 -0.0500007 0.00109994
2.1875 -0.0500007 0.00109994
2.2 -0.0500007 0.00109994
2.2125 -0.0500007 0.00109994
2.225 -0.0500007 0.00109995
2.2375 -0.0500007 0.00109995
2.25 -0.0500007 0.00109995
2.2625 -0.0500007 0.00109995
2.275 -0.0500007 0.00109995
2.2875 -0.0500007 0.00109995
2.3 -0.0500007 0.00109995
2.3125 -0.0500007 0.00109995
2.325 -0.0500007 0.00109995
2.3375 -0.0500007 0.00109995
2.35 -0.0500007 0.00109995
2.3625 -0.0500007 0.00109995
2.375 -0.0500007 0.00109995
2.3875 -0.0500007 0.00109996
2.4 -0.0500007 0.00109996
2.4125 -0.0500007 0.00109996
2.425 -0.0500007 0.00109996
2.4375 -0.0500007 0.00109996
2.45 -0.0500007 0.00109996
2.4625 -0.0500007 0.00109996
2.475 -0.0500007 0.00109996
2.4875 -0.0500007 0.00109996
2.5 -0.0500007 0.00109996
2.5125 -0.0500007 0.00109996
2.525 -0.0500007 0.00109996
2.5375 -0.0500007 0.00109996
2.55 -0.0500007 0.00109996
2.5625 -0.0500007 0.00109997
2.575 -0.0500007 0.00109997
2.5875 -0.0500007 0.00109997
2.6 -0.0500007 0.00109997
2.6125 -0.0500007 0.00109997
2.625 -0.0500007 0.00109997
2.6375 -0.0500007 0.00109997
2.65 -0.0500007 0.00109997
2.6625 -0.0500007 0.00109997
2.675 -0.0500007 0.00109997
2.6875 -0.0500007 0.00109997
2.7 -0.0500007 0.00109997
2.7125 -0.0500007 0.00109997
2.725 -0.0500007 0.00109997
2.7375 -0.0500007 0.00109997
2.75 -0.0500007 0.00109997
2.7625 -0.0500007 0.00109998
2.775 -0.0500007 0.00109998
2.7875 -0.0500007 0.00109998
2.8 -0.0500007 0.00109998
2.8125 -0.0500007 0.00109998
2.825 -0.0500007 0.00109998
2.8375 -0.0500007 0.00109998
2.85 -0.0500007 0.00109998
2.8625 -0.0500008 0.00109998
2.875 -0.0500008 0.00109998
2.8875 -0.0500008 0.00109998
2.9 -0.0500008 0.00109998
2.9125 -0.0500008 0.00109998
2.925 -0.0500008 0.00109998
2.9375 -0.0500008 0.00109998
2.95 -0.0500008 0.00109998
2.9625 -0.0500008 0.00109998
2.975 -0.0500008 0.00109998
2.9875 -0.0500008 0.00109998
3 -0.0500008 0.00109998
3.0125 -0.0500008 0.00109999
3.025 -0.0500008 0.00109999
3.0375 -0.0500008 0.00109999
3.05 -0.0500008 0.00109999
3.0625 -0.0500008 0.00109999
3.075 -0.0500008 0.00109999
3.0875 -0.0500008 0.00109999
3.1 -0.0500008 0.00109999
3.1125 -0.0500008 0.00109999
3.125 -0.0500008 0.00109999
3.1375 -0.0500008 0.00109999
3.15 -0.0500008 0.00109999
3.1625 -0.0500008 0.00109999
3.175 -0.0500008 0.00109999
3.1875 -0.0500008 0.00109999
3.2 -0.0500008 0.00109999
3.2125 -0.0500008 0.00109999
3.225 -0.0500008 0.00109999
3.2375 -0.0500008 0.00109999
3.25 -0.0500008 0.00109999
3.2625 -0.0500008 0.00109999
3.275 -0.0500008 0.00109999
3.2875 -0.0500008 0.00109999
3.3 -0.0500008 0.00109999
3.3125 -0.0500008 0.00109999
3.325 -0.0500008 0.00109999
3.3375 -0.0500008 0.00109999
3.35 -0.0500008 0.0011
3.3625 -0.0500008 0.0011
[...]
POINT_DATA 15780
 FIELD attributes 2
p 1 15780 float
-0.0310978 -0.0311138 -0.0311298 -0.0311459 -0.0311619 -0.031178 -0.0321094 -0.0330332 -0.0339569 -0.0348807 -0.0359011 -0.036965 -0.0380313 -0.0390977 -0.040164 -0.0411837 -0.0421672 -0.043132 -0.0440968 -0.0450616 -0.0459748 -0.0468726 -0.0477751 -0.0486777 -0.0495803 -0.050477 -0.0513776 -0.0522791 -0.0531806 -0.0540821 -0.054983 -0.0558905 -0.0567984 -0.0577064 -0.0586143 -0.0595218 -0.0604214 -0.0613189 -0.0622164 -0.0631139 -0.0640085 -0.0648876 -0.0657647 -0.0666419 -0.0675191 -0.0683941 -0.0692515 -0.0701068 -0.0709621 -0.0718174 -0.0726708 -0.0735055 -0.0743375 -0.0751695 -0.0760016 -0.0768313 -0.0776396 -0.0784448 -0.0792499 -0.0800551 -0.0808574 -0.0816355 -0.0824098 -0.0831841 -0.0839583 -0.084729 -0.0854731 -0.0862131 -0.086953 -0.087693 -0.088429 -0.0891364 -0.0898389 -0.0905415 -0.091244 -0.091942 -0.0926093 -0.0932715 -0.0939336 -0.0945958 -0.095253 -0.0958775 -0.0964963 -0.0971152 -0.097734 -0.0983473 -0.0989263 -0.0994995 -0.100073 -0.100646 -0.101213 -0.101746 -0.102272 -0.102798 -0.103324 -0.103845 -0.104329 -0.104807 -0.105284 -0.105762 -0.106233 -0.106668 -0.107094 -0.107521 -0.107948 -0.108367 -0.108747 -0.10912 -0.109493 -0.109866 -0.110231 -0.110556 -0.110873 -0.11119 -0.111507 -0.111816 -0.112085 -0.112345 -0.112605 -0.112865 -0.113117 -0.113328 -0.113531 -0.113733 -0.113936 -0.114131 -0.114283 -0.114427 -0.114571 -0.114715 -0.114851 -0.114944 -0.115029 -0.115115 -0.1152 -0.115278 -0.115314 -0.115343 -0.115371 -0.1154 -0.115421 -0.115403 -0.115378 -0.115353 -0.115327 -0.115294 -0.115224 -0.115146 -0.115068 -0.114991 -0.114906 -0.114783 -0.114654 -0.114524 -0.114395 -0.114258 -0.114084 -0.113903 -0.113721 -0.11354 -0.113352 -0.113128 -0.112898 -0.112667 -0.112437 -0.112199 -0.111929 -0.111652 -0.111375 -0.111098 -0.110815 -0.1105 -0.11018 -0.109859 -0.109538 -0.109211 -0.108855 -0.108492 -0.10813 -0.107767 -0.107398 -0.107002 -0.1066 -0.106198 -0.105796 -0.105388 -0.104955 -0.104517 -0.104079 -0.10364 -0.103196 -0.10273 -0.10226 -0.101789 -0.101319 -0.100844 -0.10035 -0.0998515 -0.0993534 -0.0988554 -0.0983532 -0.0978343 -0.0973119 -0.0967894 -0.096267 -0.0957407 -0.0951997 -0.0946553 -0.094111 -0.0935666 -0.0930185 -0.0924576 -0.0918938 -0.09133 -0.0907663 -0.0901993 -0.0896217 -0.0890415 -0.0884613 -0.0878812 -0.0872981 -0.0867066 -0.0861132 -0.0855198 -0.0849264 -0.0843308 -0.083729 -0.0831254 -0.0825219 -0.0819184 -0.0813128 -0.0807032 -0.0800923 -0.0794815 -0.0788707 -0.0782584 -0.077644 -0.0770286 -0.0764131 -0.0757977 -0.0751811 -0.0745641 -0.0739467 -0.0733292 -0.0727118 -0.0720936 -0.0714769 -0.0708599 -0.0702429 -0.0696259 -0.0690084 -0.0683938 -0.0677795 -0.0671652 -0.0665509 -0.0659365 -0.0653264 -0.0647168 -0.0641071 -0.0634974 -0.0628878 -0.0622839 -0.0616807 -0.0610775 -0.0604743 -0.0598716 -0.0592757 -0.0586807 -0.0580857 -0.0574906 -0.0568963 -0.0563098 -0.0557245 -0.0551392 -0.054554 -0.0539697 -0.0533943 -0.0528201 -0.052246 -0.0516719 -0.0510989 -0.0505355 -0.0499737 -0.0494119 -0.0488501 -0.0482898 -0.0477398 -0.0471914 -0.0466431 -0.0460947 -0.0455479 -0.0450119 -0.0444779 -0.0439438 -0.0434098 -0.0428776 -0.0423567 -0.0418377 -0.0413188 -0.0407999 -0.0402827 -0.0397774 -0.0392742 -0.038771 -0.0382678 -0.0377666 -0.0372775 -0.0367905 -0.0363036 -0.0358166 -0.0353316 -0.034859 -0.0343886 -0.0339183 -0.0334479 -0.0329797 -0.032524 -0.0320705 -0.031617 -0.0311636 -0.0307123 -0.0302735 -0.029837 -0.0294006 -0.0289642 -0.0285301 -0.0281084 -0.0276891 -0.0272698 -0.0268504 -0.0264335 -0.0260288 -0.0256266 -0.0252244 -0.0248222 -0.0244223 -0.0240348 -0.0236497 -0.0232646 -0.0228795 -0.0224968 -0.0221264 -0.0217586 -0.0213907 -0.0210228 -0.0206574 -0.0203041 -0.0199534 -0.0196027 -0.0192519 -0.0189035 -0.0185669 -0.0182328 -0.0178988 -0.0175648 -0.0172332 -0.0169128 -0.0165949 -0.016277 -0.0159591 -0.0156437 -0.0153391 -0.0150368 -0.0147345 -0.0144321 -0.0141323 -0.013843 -0.0135559 -0.0132689 -0.0129818 -0.0126973 -0.012423 -0.0121509 -0.0118789 -0.0116068 -0.011337 -0.0110773 -0.0108199 -0.0105624 -0.010305 -0.0100498 -0.00980448 -0.00956133 -0.00931818 -0.00907503 -0.00883408 -0.0086026 -0.00837316 -0.00814373 -0.00791429 -0.00768694 -0.00746858 -0.00725232 -0.00703606 -0.00681981 -0.00660563 -0.00640009 -0.00619658 -0.00599307 -0.00578956 -0.00558806 -0.00539483 -0.00520371 -0.00501259 -0.00482146 -0.00463244 -0.0044514 -0.00427247 -0.00409353 -0.0039146 -0.00373771 -0.00356848 -0.0034013 -0.00323413 -0.00306696 -0.00290183 -0.00274378 -0.00258762 -0.00243145 -0.00227528 -0.00212114 -0.00197364 -0.00182766 -0.00168169 -0.00153571 -0.00139151 -0.00125355 -0.00111719 -0.000980835 -0.000844476 -0.000709887 -0.000581206 -0.000454133 -0.00032706 -0.000199988 -7.45595e-05 4.51195e-05 0.000163182 0.000281245 0.000399308 0.000515749 0.000626741 0.000736149 0.000845556 0.000954964 0.00106275 0.00116548 0.00126667 0.00136786 0.00146905 0.00156864 0.00166352 0.00175695 0.00185037 0.0019438 0.00203571 0.00212323 0.00220932 0.00229542 0.00238151 0.00246612 0.00254661 0.00262578 0.00270494 0.0027841 0.00286187 0.0029358 0.00300842 0.00308104 0.00315366 0.0032249 0.0032926 0.00335906 0.00342551 0.00349197 0.00355713 0.003619 0.00367964 0.00374029 0.00380094 0.00386031 0.00391665 0.00397185 0.00402704 0.00408224 0.00413622 0.00418743 0.0042375 0.00428757 0.00433763 0.0043865 0.00443282 0.00447806 0.0045233 0.00456854 0.00461264 0.00465441 0.00469512 0.00473582 0.00477652 0.00481611 0.00485355 0.00489002 0.00492648 0.00496294 0.00499835 0.00503184 0.00506434 0.00509684 0.00512934 0.0051608 0.00519052 0.00521934 0.00524815 0.00527696 0.0053048 0.00533107 0.00535644 0.00538181 0.00540718 0.00543158 0.00545458 0.00547674 0.0054989 0.00552106 0.00554232 0.00556235 0.00558153 0.00560071 0.00561989 0.00563817 0.00565538 0.0056718 0.00568823 0.00570465 0.00572023 0.00573489 0.00574876 0.00576263 0.00577651 0.00578956 0.00580181 0.00581334 0.00582487 0.0058364 0.00584716 0.00585725 0.00586663 0.00587601 0.00588538 0.00589399 0.00590208 0.00590949 0.0059169 0.0059243 0.005931 0.00593727 0.00594287 0.00594848 0.00595408 0.00595897 0.00596354 0.0059675 0.00597145 0.0059754 0.00597867 0.00598175 0.00598419 0.00598663 0.00598907 0.00599083 0.00599248 0.00599354 0.0059946 0.00599566 0.00599609 0.00599649 0.00599629 0.00599609 0.00599589 0.00599506 0.00599427 0.00599295 0.00599163 0.0059903 0.00598839 0.00598663 0.00598431 0.005982 0.00597968 0.00597678 0.0059741 0.0059709 0.00596771 0.00596451 0.00596078 0.00595733 0.00595336 0.0059494 0.00594544 0.00594094 0.0059368 0.00593217 0.00592755 0.00592293 0.00591779 0.00591309 0.0059079 0.00590271 0.00589752 0.00589183 0.00588664 0.00588098 0.00587532 0.00586966 0.00586352 0.00585795 0.00585191 0.00584587 0.00583983 0.00583332 0.00582744 0.00582111 0.00581479 0.00580846 0.00580168 0.00579559 0.00578906 0.00578253 0.005776 0.00576903 0.0057628 0.00575615 0.0057495 0.00574285 0.00573577 0.00572948 0.00572278 0.00571608 0.00570937 0.00570223 0.00569593 0.00568923 0.00568253 0.00567583 0.00566871 0.00566247 0.00565582 0.00564918 0.00564254 0.00563547 0.00562932 0.00562279 0.00561625 0.00560972 0.00560278 0.0055968 0.00559044 0.00558407 0.0055777 0.00557094 0.00556518 0.00555904 0.00555291 0.00554677 0.00554025 0.00553479 0.00552895 0.00552311 0.00551727 0.00551105 0.00550596 0.00550049 0.00549501 0.00548954 0.00548369 0.00547901 0.00547395 0.0054689 0.00546384 0.00545844 0.00545423 0.00544962 0.005445 0.00544039 0.00543541 0.00543162 0.00542745 0.00542327 0.0054191 0.00541456 0.00541119 0.00540738 0.00540358 0.00539977 0.00539557 0.00539239 0.00538877 0.00538514 0.00538151 0.00537748 0.0053741 0.00537022 0.00536633 0.00536244 0.00535807 0.00535321 0.00534753 0.00534185 0.00533617 0.00532971 0.00532099 0.00531184 0.00530269 0.00529354 0.0052839 0.00525784 0.00522625 0.00519466 0.00516307 0.00512658 0.00511514 0.00511783 0.00512053 0.00512322 0.00514888 0.00523251 0.00530857 0.00538796 0.00545097 0.00549662 0.00548959 0.00548574 0.00548189 0.00547808 0.00547655 0.00550339 0.00553103 0.00555867 0.00557828 0.00559922 0.00561313 0.00563194 0.00565078 0.00566962 0.00568391 0.00574677 0.00581176 0.00587674 0.00594172 0.0059982 0.00608962 0.00616571 0.0062418 0.00631789 0.00632301 0.00630838 0.00628901 0.00626964 0.00625027 0.00624039 0.00603955 0.00581801 0.00559647 0.00537493 0.00504757 0.00456759 0.00407371 0.00357983 0.00308595 0.00262187 0.00235211 0.0020748 0.0017975 0.0015202 0.00127286 0.00117427 0.00106924 0.000964222 0.000859199 0.000773555 0.000667646 0.00055618 0.000444713 0.000333246 0.000255263
-0.0319471 -0.0319662 -0.0319853 -0.0320044 -0.0320235 -0.0320426 -0.0327435 -0.0336212 -0.0344038 -0.0351663 -0.0362245 -0.0372613 -0.0382516 -0.0392541 -0.0403135 -0.0412975 -0.0422587 -0.0432247 -0.0441653 -0.0451006 -0.0460065 -0.0469046 -0.0478107 -0.0487166 -0.0496217 -0.0505268 -0.0514185 -0.0523222 -0.0532309 -0.0541407 -0.055061 -0.0559662 -0.0568784 -0.0577902 -0.0586997 -0.0596147 -0.0605161 -0.0614144 -0.062314 -0.0632139 -0.0641101 -0.0649911 -0.0658711 -0.0667507 -0.0676283 -0.0685042 -0.0693624 -0.070218 -0.0710763 -0.071935 -0.0727916 -0.0736256 -0.074461 -0.0752959 -0.0761282 -0.0769619 -0.0777691 -0.0785745 -0.0793823 -0.0801905 -0.0809973 -0.0817729 -0.0825501 -0.0833268 -0.0841012 -0.0848771 -0.0856179 -0.0863579 -0.0871002 -0.0878429 -0.0885853 -0.0892877 -0.0899929 -0.0906976 -0.0914002 -0.0921056 -0.0927669 -0.0934291 -0.0940933 -0.0947579 -0.0954238 -0.0960407 -0.0966617 -0.0972824 -0.0979012 -0.098524 -0.099093 -0.099666 -0.100241 -0.100816 -0.101395 -0.101914 -0.102442 -0.102969 -0.103495 -0.10403 -0.104502 -0.10498 -0.105458 -0.105936 -0.106421 -0.106844 -0.107271 -0.107698 -0.108124 -0.108555 -0.108925 -0.109298 -0.109671 -0.110043 -0.110418 -0.110734 -0.11105 -0.111366 -0.111683 -0.112002 -0.112261 -0.112521 -0.112781 -0.11304 -0.1133 -0.113502 -0.113704 -0.113906 -0.114109 -0.114311 -0.114455 -0.114599 -0.114743 -0.114887 -0.115029 -0.115112 -0.115198 -0.115283 -0.115368 -0.115455 -0.11548 -0.115508 -0.115537 -0.115566 -0.115599 -0.115567 -0.115541 -0.115515 -0.115489 -0.11547 -0.115386 -0.115308 -0.115228 -0.115148 -0.115075 -0.114939 -0.114806 -0.114674 -0.114544 -0.114416 -0.11423 -0.114048 -0.113864 -0.113679 -0.113499 -0.113263 -0.113029 -0.112796 -0.112565 -0.112336 -0.112054 -0.111776 -0.111497 -0.111216 -0.11094 -0.110615 -0.11029 -0.109967 -0.109645 -0.109325 -0.10896 -0.108597 -0.108232 -0.107866 -0.107503 -0.1071 -0.106696 -0.106292 -0.10589 -0.105487 -0.105046 -0.104608 -0.104168 -0.103728 -0.103289 -0.102813 -0.10234 -0.101867 -0.101396 -0.100928 -0.100422 -0.0999237 -0.0994226 -0.0989209 -0.0984259 -0.0978968 -0.0973705 -0.0968449 -0.0963219 -0.0958017 -0.095252 -0.0947073 -0.0941599 -0.093612 -0.0930689 -0.0925004 -0.0919333 -0.0913668 -0.0908027 -0.0902396 -0.089655 -0.0890745 -0.0884916 -0.0879083 -0.0873289 -0.0867311 -0.0861347 -0.0855388 -0.0849451 -0.0843524 -0.0837447 -0.0831409 -0.0825349 -0.0819285 -0.0813257 -0.0807109 -0.0800974 -0.0794843 -0.0788731 -0.078263 -0.0776438 -0.0770281 -0.0764106 -0.0757926 -0.0751779 -0.0745569 -0.073937 -0.0733176 -0.0726999 -0.0720831 -0.0714627 -0.0708455 -0.0702267 -0.0696075 -0.0689913 -0.0683738 -0.0677575 -0.0671415 -0.066527 -0.0659135 -0.0653009 -0.064691 -0.0640798 -0.0634683 -0.0628594 -0.0622534 -0.0616486 -0.061044 -0.0604406 -0.0598382 -0.0592405 -0.0586454 -0.0580491 -0.0574526 -0.0568584 -0.0562707 -0.0556841 -0.0550977 -0.0545124 -0.0539279 -0.0533515 -0.0527773 -0.0522022 -0.0516269 -0.0510536 -0.0504897 -0.0499269 -0.0493643 -0.0488025 -0.0482416 -0.0476913 -0.0471429 -0.0465938 -0.0460446 -0.0454971 -0.0449613 -0.0444265 -0.0438919 -0.0433578 -0.0428247 -0.0423042 -0.0417852 -0.0412658 -0.0407463 -0.0402282 -0.0397236 -0.0392199 -0.0387163 -0.0382131 -0.0377108 -0.0372225 -0.0367355 -0.0362483 -0.035761 -0.0352749 -0.0348033 -0.0343327 -0.0338622 -0.0333919 -0.0329224 -0.0324678 -0.0320144 -0.0315608 -0.0311072 -0.0306547 -0.0302173 -0.0297808 -0.0293444 -0.028908 -0.0284725 -0.0280523 -0.0276331 -0.0272138 -0.0267946 -0.0263763 -0.0259733 -0.0255712 -0.0251691 -0.024767 -0.0243657 -0.0239797 -0.0235947 -0.0232097 -0.0228248 -0.0224408 -0.0220718 -0.0217042 -0.0213365 -0.0209687 -0.0206021 -0.0202501 -0.0198994 -0.0195489 -0.0191984 -0.0188491 -0.0185137 -0.0181797 -0.0178458 -0.0175119 -0.0171792 -0.0168606 -0.0165428 -0.016225 -0.0159073 -0.0155906 -0.0152881 -0.0149861 -0.0146841 -0.0143819 -0.0140802 -0.0137937 -0.0135067 -0.01322 -0.0129334 -0.0126465 -0.0123752 -0.0121035 -0.0118318 -0.0115598 -0.0112876 -0.0110306 -0.0107732 -0.0105161 -0.0102591 -0.0100017 -0.00975888 -0.00951618 -0.00927341 -0.00903031 -0.00878739 -0.00855841 -0.00832906 -0.00810011 -0.00787125 -0.0076419 -0.00742621 -0.00721068 -0.00699505 -0.00677891 -0.00656303 -0.00635993 -0.00615653 -0.00595366 -0.0057509 -0.00554785 -0.00535686 -0.00516648 -0.00497599 -0.00478496 -0.00459447 -0.00441532 -0.00423644 -0.00405796 -0.00387957 -0.00370155 -0.00353355 -0.00336661 -0.00319964 -0.0030325 -0.00286617 -0.00270956 -0.00255346 -0.00239746 -0.00224149 -0.00208616 -0.00194047 -0.00179489 -0.00164926 -0.00150341 -0.00135784 -0.00122242 -0.00108619 -0.000950346 -0.000814586 -0.000678059 -0.00055209 -0.000425682 -0.000299174 -0.000172213 -4.49611e-05 7.23221e-05 0.000190299 0.000307836 0.000425274 0.000543444 0.000652273 0.000761131 0.000870077 0.000979416 0.00108876 0.00118948 0.00129061 0.00139138 0.00149207 0.00159313 0.00168612 0.00177908 0.00187211 0.00196546 0.00205875 0.0021444 0.00223042 0.00231613 0.00240176 0.00248772 0.00256644 0.00264515 0.00272392 0.00280301 0.00288205 0.00295421 0.00302676 0.00309899 0.00317115 0.00324364 0.00330969 0.00337571 0.0034418 0.00350819 0.00357453 0.00363478 0.00369537 0.00375568 0.00381594 0.00387647 0.00393128 0.00398612 0.00404102 0.00409616 0.00415132 0.00420095 0.00425096 0.00430074 0.00435046 0.00440049 0.00444529 0.00449017 0.00453511 0.00458029 0.00462554 0.00466576 0.00470641 0.00474682 0.00478717 0.00482788 0.00486388 0.0049 0.00493618 0.00497259 0.00500911 0.00504111 0.00507356 0.00510579 0.00513797 0.00517054 0.00519886 0.00522736 0.00525591 0.00528468 0.0053136 0.00533845 0.00536378 0.0053889 0.00541398 0.00543946 0.00546112 0.00548301 0.00550493 0.00552705 0.00554937 0.00556803 0.00558717 0.00560613 0.00562504 0.00564438 0.0056603 0.00567646 0.00569267 0.00570905 0.00572567 0.005739 0.00575284 0.00576651 0.00578014 0.00579421 0.00580522 0.00581652 0.00582785 0.00583934 0.00585112 0.00585994 0.00586928 0.00587847 0.00588763 0.00589726 0.00590413 0.00591132 0.00591855 0.00592593 0.00593362 0.00593866 0.00594423 0.00594966 0.00595506 0.00596094 0.00596435 0.00596811 0.0059719 0.00597582 0.00598007 0.00598195 0.00598436 0.00598665 0.00598891 0.00599165 0.00599217 0.00599305 0.00599396 0.005995 0.00599638 0.0059956 0.00599538 0.00599504 0.00599468 0.0059948 0.0059929 0.00599143 0.00598997 0.00598863 0.00598768 0.00598479 0.00598245 0.00598001 0.00597754 0.0059756 0.00597183 0.0059685 0.00596518 0.00596197 0.00595917 0.00595463 0.00595065 0.00594657 0.00594248 0.00593892 0.00593373 0.00592899 0.00592426 0.00591962 0.00591542 0.00590965 0.00590445 0.00589917 0.00589387 0.0058891 0.00588288 0.00587712 0.00587137 0.0058657 0.00586049 0.00585387 0.00584782 0.0058417 0.00583556 0.00582997 0.00582307 0.00581665 0.00581025 0.00580391 0.00579806 0.00579094 0.0057844 0.0057778 0.00577118 0.00576513 0.0057579 0.00575116 0.00574445 0.00573778 0.00573163 0.00572433 0.00571761 0.00571084 0.00570405 0.00569782 0.00569055 0.00568377 0.005677 0.00567029 0.00566408 0.00565684 0.00565019 0.00564349 0.00563677 0.00563061 0.00562351 0.00561691 0.00561033 0.00560379 0.00559775 0.0055908 0.00558443 0.00557802 0.00557161 0.00556575 0.00555904 0.00555287 0.0055467 0.00554056 0.00553497 0.00552852 0.00552268 0.00551682 0.00551096 0.00550569 0.00549962 0.00549414 0.00548866 0.00548319 0.00547833 0.00547266 0.0054676 0.00546256 0.00545752 0.00545311 0.0054479 0.00544334 0.00543877 0.00543416 0.00543023 0.00542545 0.00542128 0.0054172 0.00541313 0.00540968 0.00540531 0.00540173 0.0053981 0.00539432 0.00539136 0.00538721 0.00538364 0.00538042 0.00537729 0.00537476 0.00537045 0.00536767 0.0053647 0.00536095 0.00535871 0.00535342 0.00534821 0.00534526 0.00534284 0.00534046 0.00533147 0.00532979 0.00532692 0.00531904 0.00531805 0.00530379 0.00527928 0.00527482 0.00527509 0.0052644 0.00522155 0.00523315 0.00524355 0.00524886 0.00531698 0.00541051 0.0054741 0.00553769 0.0055757 0.00552937 0.00551017 0.00550312 0.00549606 0.00548856 0.00549253 0.00551005 0.00552817 0.0055463 0.00555795 0.00556919 0.00557024 0.00557129 0.00557234 0.00557327 0.00557396 0.00559878 0.0056277 0.00565671 0.00568572 0.00565904 0.00569718 0.0057598 0.00582279 0.00588579 0.00596574 0.00617998 0.00626899 0.00635143 0.00642753 0.00632059 0.00635645 0.00633708 0.00632064 0.00631119 0.00625582 0.00620929 0.00598775 0.00576621 0.00553208 0.00503851 0.00469888 0.00420501 0.00371113 0.00321458 0.00259579 0.00241416 0.00213685 0.00185955 0.00158225 0.00124246 0.00122336 0.00111834 0.00101331 0.000908291 0.000751126 0.000715131 0.000603667 0.000492202 0.000380738 0.000206745