# vtk DataFile Version 2.0
track0
ASCII
DATASET POLYDATA
POINTS 15780 float
-1.001 -0.05 0.0011
-1.0008 -0.05 0.0011
-1.0006 -0.05 0.0011
-1.0004 -0.05 0.0011
-1.0002 -0.05 0.0011
-1 -0.05 0.0011
-0.9875 -0.05 0.0011
-0.975 -0.05 0.0011
-0.9625 -0.05 0.0011
-0.95 -0.05 0.0011
-0.9375 -0.05 0.00109999
-0.925 -0.05 0.00109999
-0.9125 -0.05 0.00109999
-0.9 -0.05 0.00109999
-0.8875 -0.05 0.00109999
-0.875 -0.05 0.00109999
-0.8625 -0.05 0.00109999
-0.85 -0.05 0.00109999
-0.8375 -0.05 0.00109998
-0.825 -0.0500001 0.00109998
-0.8125 -0.0500001 0.00109998
-0.8 -0.0500001 0.00109998
-0.7875 -0.0500001 0.00109998
-0.775 -0.0500001 0.00109998
-0.7625 -0.0500001 0.00109998
-0.75 -0.0500001 0.00109998
-0.7375 -0.0500001 0.00109997
-0.725 -0.0500001 0.00109997
-0.7125 -0.0500001 0.00109997
-0.7 -0.0500001 0.00109997
-0.6875 -0.0500001 0.00109997
-0.675 -0.0500001 0.00109997
-0.6625 -0.0500001 0.00109997
-0.65 -0.0500001 0.00109996
-0.6375 -0.0500001 0.00109996
-0.625 -0.0500001 0.00109996
-0.6125 -0.0500001 0.00109996
-0.6 -0.0500001 0.00109996
-0.5875 -0.0500001 0.00109996
-0.575 -0.0500001 0.00109996
-0.5625 -0.0500001 0.00109996
-0.55 -0.0500001 0.00109995
-0.5375 -0.0500001 0.00109995
-0.525 -0.0500001 0.00109995
-0.5125 -0.0500001 0.00109995
-0.5 -0.0500001 0.00109995
-0.4875 -0.0500001 0.00109995
-0.475 -0.0500001 0.00109995
-0.4625 -0.0500001 0.00109994
-0.45 -0.0500002 0.00109994
-0.4375 -0.0500002 0.00109994
-0.425 -0.0500002 0.00109994
-0.4125 -0.0500002 0.00109994
-0.4 -0.0500002 0.00109994
-0.3875 -0.0500002 0.00109994
-0.375 -0.0500002 0.00109994
-0.3625 -0.0500002 0.00109993
-0.35 -0.0500002 0.00109993
-0.3375 -0.0500002 0.00109993
-0.325 -0.0500002 0.00109993
-0.3125 -0.0500002 0.00109993
-0.3 -0.0500002 0.00109993
-0.2875 -0.0500002 0.00109993
-0.275 -0.0500002 0.00109993
-0.2625 -0.0500002 0.00109992
-0.25 -0.0500002 0.00109992
-0.2375 -0.0500002 0.00109992
-0.225 -0.0500002 0.00109992
-0.2125 -0.0500002 0.00109992
-0.2 -0.0500002 0.00109992
-0.1875 -0.0500002 0.00109992
-0.175 -0.0500002 0.00109992
-0.1625 -0.0500002 0.00109991
-0.15 -0.0500002 0.00109991
-0.1375 -0.0500002 0.00109991
-0.125 -0.0500002 0.00109991
-0.1125 -0.0500002 0.00109991
-0.1 -0.0500002 0.00109991
-0.0875 -0.0500002 0.00109991
-0.075 -0.0500002 0.00109991
-0.0625 -0.0500002 0.00109991
-0.05 -0.0500003 0.00109991
-0.0375 -0.0500003 0.0010999
-0.025 -0.0500003 0.0010999
-0.0125 -0.0500003 0.0010999
2.10607e-13 -0.0500003 0.0010999
0.0125 -0.0500003 0.0010999
0.025 -0.0500003 0.0010999
0.0375 -0.0500003 0.0010999
0.05 -0.0500003 0.0010999
0.0625 -0.0500003 0.0010999
0.075 -0.0500003 0.0010999
0.0875 -0.0500003 0.0010999
0.1 -0.0500003 0.00109989
0.1125 -0.0500003 0.00109989
0.125 -0.0500003 0.00109989
0.1375 -0.0500003 0.00109989
0.15 -0.0500003 0.00109989
0.1625 -0.0500003 0.00109989
0.175 -0.0500003 0.00109989
0.1875 -0.0500003 0.00109989
0.2 -0.0500003 0.00109989
0.2125 -0.0500003 0.00109989
0.225 -0.0500003 0.00109989
0.2375 -0.0500003 0.00109989
0.25 -0.0500003 0.00109989
0.2625 -0.0500003 0.00109988
0.275 -0.0500003 0.00109988
0.2875 -0.0500003 0.00109988
0.3 -0.0500003 0.00109988
0.3125 -0.0500003 0.00109988
0.325 -0.0500003 0.00109988
0.3375 -0.0500003 0.00109988
0.35 -0.0500003 0.00109988
0.3625 -0.0500003 0.00109988
0.375 -0.0500003 0.00109988
0.3875 -0.0500003 0.00109988
0.4 -0.0500004 0.00109988
0.4125 -0.0500004 0.00109988
0.425 -0.0500004 0.00109988
0.4375 -0.0500004 0.00109988
0.45 -0.0500004 0.00109988
0.4625 -0.0500004 0.00109988
0.475 -0.0500004 0.00109988
0.4875 -0.0500004 0.00109988
0.5 -0.0500004 0.00109988
0.5125 -0.0500004 0.00109988
0.525 -0.0500004 0.00109988
0.5375 -0.0500004 0.00109988
0.55 -0.0500004 0.00109988
0.5625 -0.0500004 0.00109988
0.575 -0.0500004 0.00109987
0.5875 -0.0500004 0.00109987
0.6 -0.0500004 0.00109987
0.6125 -0.0500004 0.00109987
0.625 -0.0500004 0.00109987
0.6375 -0.0500004 0.00109987
0.65 -0.0500004 0.00109987
0.6625 -0.0500004 0.00109987
0.675 -0.0500004 0.00109987
0.6875 -0.0500004 0.00109987
0.7 -0.0500004 0.00109987
0.7125 -0.0500004 0.00109987
0.725 -0.0500004 0.00109987
0.7375 -0.0500004 0.00109987
0.75 -0.0500004 0.00109987
0.7625 -0.0500004 0.00109987
0.775 -0.0500004 0.00109987
0.7875 -0.0500004 0.00109987
0.8 -0.0500004 0.00109987
0.8125 -0.0500004 0.00109987
0.825 -0.0500004 0.00109987
0.8375 -0.0500004 0.00109987
0.85 -0.0500004 0.00109987
0.8625 -0.0500004 0.00109987
0.875 -0.0500004 0.00109987
0.8875 -0.0500004 0.00109987
0.9 -0.0500004 0.00109987
0.9125 -0.0500005 0.00109988
0.925 -0.0500005 0.00109988
0.9375 -0.0500005 0.00109988
0.95 -0.0500005 0.00109988
0.9625 -0.0500005 0.00109988
0.975 -0.0500005 0.00109988
0.9875 -0.0500005 0.00109988
1 -0.0500005 0.00109988
1.0125 -0.0500005 0.00109988
1.025 -0.0500005 0.00109988
1.0375 -0.0500005 0.00109988
1.05 -0.0500005 0.00109988
1.0625 -0.0500005 0.00109988
1.075 -0.0500005 0.00109988
1.0875 -0.0500005 0.00109988
1.1 -0.0500005 0.00109988
1.1125 -0.0500005 0.00109988
1.125 -0.0500005 0.00109988
1.1375 -0.0500005 0.00109988
1.15 -0.0500005 0.00109988
1.1625 -0.0500005 0.00109988
1.175 -0.0500005 0.00109988
1.1875 -0.0500005 0.00109988
1.2 -0.0500005 0.00109988
1.2125 -0.0500005 0.00109988
1.225 -0.0500005 0.00109988
1.2375 -0.0500005 0.00109989
1.25 -0.0500005 0.00109989
1.2625 -0.0500005 0.00109989
1.275 -0.0500005 0.00109989
1.2875 -0.0500005 0.00109989
1.3 -0.0500005 0.00109989
1.3125 -0.0500005 0.00109989
1.325 -0.0500005 0.00109989
1.3375 -0.0500005 0.00109989
1.35 -0.0500005 0.00109989
1.3625 -0.0500005 0.00109989
1.375 -0.0500005 0.00109989
1.3875 -0.0500005 0.00109989
1.4 -0.0500005 0.00109989
1.4125 -0.0500005 0.00109989
1.425 -0.0500005 0.00109989
1.4375 -0.0500005 0.0010999
1.45 -0.0500005 0.0010999
1.4625 -0.0500005 0.0010999
1.475 -0.0500005 0.0010999
1.4875 -0.0500005 0.0010999
1.5 -0.0500006 0.0010999
1.5125 -0.0500006 0.0010999
1.525 -0.0500006 0.0010999
1.5375 -0.0500006 0.0010999
1.55 -0.0500006 0.0010999
1.5625 -0.0500006 0.0010999
1.575 -0.0500006 0.0010999
1.5875 -0.0500006 0.0010999
1.6 -0.0500006 0.0010999
1.6125 -0.0500006 0.00109991
1.625 -0.0500006 0.00109991
1.6375 -0.0500006 0.00109991
1.65 -0.0500006 0.00109991
1.6625 -0.0500006 0.00109991
1.675 -0.0500006 0.00109991
1.6875 -0.0500006 0.00109991
1.7 -0.0500006 0.00109991
1.7125 -0.0500006 0.00109991
1.725 -0.0500006 0.00109991
1.7375 -0.0500006 0.00109991
1.75 -0.0500006 0.00109991
1.7625 -0.0500006 0.00109992
1.775 -0.0500006 0.00109992
1.7875 -0.0500006 0.00109992
1.8 -0.0500006 0.00109992
1.8125 -0.0500006 0.00109992
1.825 -0.0500006 0.00109992
1.8375 -0.0500006 0.00109992
1.85 -0.0500006 0.00109992
1.8625 -0.0500006 0.00109992
1.875 -0.0500006 0.00109992
1.8875 -0.0500006 0.00109992
1.9 -0.0500006 0.00109992
1.9125 -0.0500006 0.00109993
1.925 -0.0500006 0.00109993
1.9375 -0.0500006 0.00109993
1.95 -0.0500006 0.00109993
1.9625 -0.0500006 0.00109993
1.975 -0.0500006 0.00109993
1.9875 -0.0500006 0.00109993
2 -0.0500006 0.00109993
2.0125 -0.0500006 0.00109993
2.025 -0.0500006 0.00109993
2.0375 -0.0500006 0.00109993
2.05 -0.0500006 0.00109993
2.0625 -0.0500006 0.00109994
2.075 -0.0500006 0.00109994
2.0875 -0.0500006 0.00109994
2.1 -0.0500006 0.00109994
2.1125 -0.0500006 0.00109994
2.125 -0.0500006 0.00109994
2.1375 -0.0500006 0.00109994
2.15 -0.0500006 0.00109994
2.1625 -0.0500006 0.00109994
2.175 -0.0500007 0.00109994
2.1875 -0.0500007 0.00109994
2.2 -0.0500007 0.00109994
2.2125 -0.0500007 0.00109994
2.225 -0.0500007 0.00109995
2.2375 -0.0500007 0.00109995
2.25 -0.0500007 0.00109995
2.2625 -0.0500007 0.00109995
2.275 -0.0500007 0.00109995
2.2875 -0.0500007 0.00109995
2.3 -0.0500007 0.00109995
2.3125 -0.0500007 0.00109995
2.325 -0.0500007 0.00109995
2.3375 -0.0500007 0.00109995
2.35 -0.0500007 0.00109995
2.3625 -0.0500007 0.00109995
2.375 -0.0500007 0.00109995
2.3875 -0.0500007 0.00109996
2.4 -0.0500007 0.00109996
2.4125 -0.0500007 0.00109996
2.425 -0.0500007 0.00109996
2.4375 -0.0500007 0.00109996
2.45 -0.0500007 0.00109996
2.4625 -0.0500007 0.00109996
2.475 -0.0500007 0.00109996
2.4875 -0.0500007 0.00109996
2.5 -0.0500007 0.00109996
2.5125 -0.0500007 0.00109996
2.525 -0.0500007 0.00109996
2.5375 -0.0500007 0.00109996
2.55 -0.0500007 0.00109996
2.5625 -0.0500007 0.00109997
2.575 -0.0500007 0.00109997
2.5875 -0.0500007 0.00109997
2.6 -0.0500007 0.00109997
2.6125 -0.0500007 0.00109997
2.625 -0.0500007 0.00109997
2.6375 -0.0500007 0.00109997
2.65 -0.0500007 0.00109997
2.6625 -0.0500007 0.00109997
2.675 -0.0500007 0.00109997
2.6875 -0.0500007 0.00109997
2.7 -0.0500007 0.00109997
2.7125 -0.0500007 0.00109997
2.725 -0.0500007 0.00109997
2.7375 -0.0500007 0.00109997
2.75 -0.0500007 0.00109997
2.7625 -0.0500007 0.00109998
2.775 -0.0500007 0.00109998
2.7875 -0.0500007 0.00109998
2.8 -0.0500007 0.00109998
2.8125 -0.0500007 0.00109998
2.825 -0.0500007 0.00109998
2.8375 -0.0500007 0.00109998
2.85 -0.0500007 0.00109998
2.8625 -0.0500008 0.00109998
2.875 -0.0500008 0.00109998
2.8875 -0.0500008 0.00109998
2.9 -0.0500008 0.00109998
2.9125 -0.0500008 0.00109998
2.925 -0.0500008 0.00109998
2.9375 -0.0500008 0.00109998
2.95 -0.0500008 0.00109998
2.9625 -0.0500008 0.00109998
2.975 -0.0500008 0.00109998
2.9875 -0.0500008 0.00109998
3 -0.0500008 0.00109998
3.0125 -0.0500008 0.00109999
3.025 -0.0500008 0.00109999
3.0375 -0.0500008 0.00109999
3.05 -0.0500008 0.00109999
3.0625 -0.0500008 0.00109999
3.075 -0.0500008 0.00109999
3.0875 -0.0500008 0.00109999
3.1 -0.0500008 0.00109999
3.1125 -0.0500008 0.00109999
3.125 -0.0500008 0.00109999
3.1375 -0.0500008 0.00109999
3.15 -0.0500008 0.00109999
3.1625 -0.0500008 0.00109999
3.175 -0.0500008 0.00109999
3.1875 -0.0500008 0.00109999
3.2 -0.0500008 0.00109999
3.2125 -0.0500008 0.00109999
3.225 -0.0500008 0.00109999
3.2375 -0.0500008 0.00109999
3.25 -0.0500008 0.00109999
3.2625 -0.0500008 0.00109999
3.275 -0.0500008 0.00109999
3.2875 -0.0500008 0.00109999
3.3 -0.0500008 0.00109999
3.3125 -0.0500008 0.00109999
3.325 -0.0500008 0.00109999
3.3375 -0.0500008 0.00109999
3.35 -0.0500008 0.0011
3.3625 -0.0500008 0.0011
[...]
POINT_DATA 15780
 FIELD attributes 1
U 3 15780 float
30.0002 	-7.01791e-06 	-6.30589e-06 30.0002 	-6.84342e-06 	-6.51455e-06 30.0002 	-6.66894e-06 	-6.72322e-06 30.0002 	-6.49445e-06 	-6.93189e-06 30.0002 	-6.31997e-06 	-7.14056e-06 30.0002 	-6.14548e-06 	-7.34923e-06 30.0004 	-1.23852e-05 	-1.26097e-06 30.0004 	-1.23852e-05 	-1.26097e-06 30.0004 	-1.23852e-05 	-1.26097e-06 30.0004 	-1.23852e-05 	-1.26097e-06 30.0002 	-7.05367e-08 	-6.84369e-06 30.0005 	-1.07091e-05 	-1.687e-06 30.0005 	-1.07091e-05 	-1.687e-06 30.0005 	-1.07091e-05 	-1.687e-06 30.0005 	-1.07091e-05 	-1.68699e-06 30.0002 	-7.22299e-08 	-6.59609e-06 30.0005 	-9.9586e-06 	-2.08018e-06 30.0005 	-9.95859e-06 	-2.08018e-06 30.0005 	-9.95858e-06 	-2.08017e-06 30.0005 	-9.95857e-06 	-2.08017e-06 30.0003 	-4.59316e-06 	-6.24727e-06 30.0005 	-9.69186e-06 	-2.34891e-06 30.0005 	-9.69185e-06 	-2.3489e-06 30.0005 	-9.69184e-06 	-2.3489e-06 30.0005 	-9.69184e-06 	-2.3489e-06 30.0003 	-7.58623e-08 	-6.57616e-06 30.0005 	-9.52373e-06 	-2.49776e-06 30.0005 	-9.52372e-06 	-2.49776e-06 30.0005 	-9.52371e-06 	-2.49776e-06 30.0005 	-9.5237e-06 	-2.49776e-06 30.0003 	-7.76384e-08 	-6.52627e-06 30.0005 	-9.38737e-06 	-2.55601e-06 30.0005 	-9.38736e-06 	-2.55601e-06 30.0005 	-9.38735e-06 	-2.556e-06 30.0005 	-9.38735e-06 	-2.556e-06 30.0003 	-4.26703e-06 	-6.08529e-06 30.0005 	-9.27996e-06 	-2.55824e-06 30.0005 	-9.27995e-06 	-2.55824e-06 30.0005 	-9.27994e-06 	-2.55824e-06 30.0005 	-9.27993e-06 	-2.55824e-06 30.0003 	-4.19944e-06 	-5.97789e-06 30.0006 	-9.18781e-06 	-2.53037e-06 30.0006 	-9.1878e-06 	-2.53036e-06 30.0006 	-9.18779e-06 	-2.53036e-06 30.0006 	-9.18778e-06 	-2.53036e-06 30.0003 	-8.29804e-08 	-6.20126e-06 30.0006 	-9.09777e-06 	-2.48111e-06 30.0006 	-9.09776e-06 	-2.48111e-06 30.0006 	-9.09775e-06 	-2.48111e-06 30.0006 	-9.09775e-06 	-2.48111e-06 30.0003 	-8.47403e-08 	-6.05422e-06 30.0006 	-9.00532e-06 	-2.41356e-06 30.0006 	-9.00531e-06 	-2.41356e-06 30.0006 	-9.0053e-06 	-2.41356e-06 30.0006 	-9.00529e-06 	-2.41355e-06 30.0003 	-8.64951e-08 	-5.88782e-06 30.0006 	-8.90918e-06 	-2.3297e-06 30.0006 	-8.90917e-06 	-2.3297e-06 30.0006 	-8.90916e-06 	-2.3297e-06 30.0006 	-8.90915e-06 	-2.32969e-06 30.0003 	-3.93807e-06 	-5.36348e-06 30.0006 	-8.80915e-06 	-2.23271e-06 30.0006 	-8.80915e-06 	-2.23271e-06 30.0006 	-8.80914e-06 	-2.23271e-06 30.0006 	-8.80913e-06 	-2.23271e-06 30.0003 	-3.8643e-06 	-5.16475e-06 30.0006 	-8.7049e-06 	-2.1241e-06 30.0006 	-8.70489e-06 	-2.1241e-06 30.0006 	-8.70489e-06 	-2.1241e-06 30.0006 	-8.70488e-06 	-2.12409e-06 30.0003 	-9.17749e-08 	-5.28457e-06 30.0006 	-8.59671e-06 	-2.00504e-06 30.0006 	-8.5967e-06 	-2.00504e-06 30.0006 	-8.5967e-06 	-2.00504e-06 30.0006 	-8.59669e-06 	-2.00503e-06 30.0003 	-3.7047e-06 	-4.71939e-06 30.0007 	-8.48534e-06 	-1.87665e-06 30.0007 	-8.48533e-06 	-1.87665e-06 30.0007 	-8.48533e-06 	-1.87665e-06 30.0007 	-8.48532e-06 	-1.87664e-06 30.0003 	-3.61959e-06 	-4.4743e-06 30.0007 	-8.37199e-06 	-1.73881e-06 30.0007 	-8.37199e-06 	-1.73881e-06 30.0007 	-8.37198e-06 	-1.73881e-06 30.0007 	-8.37198e-06 	-1.73881e-06 30.0004 	-9.69974e-08 	-4.54318e-06 30.0007 	-8.26041e-06 	-1.598e-06 30.0007 	-8.2604e-06 	-1.598e-06 30.0007 	-8.2604e-06 	-1.598e-06 30.0007 	-8.26039e-06 	-1.598e-06 30.0004 	-9.87263e-08 	-4.27123e-06 30.0007 	-8.1484e-06 	-1.46321e-06 30.0007 	-8.1484e-06 	-1.46321e-06 30.0007 	-8.14839e-06 	-1.46321e-06 30.0007 	-8.14839e-06 	-1.46321e-06 30.0004 	-1.00446e-07 	-3.98926e-06 30.0007 	-8.02031e-06 	-1.3207e-06 30.0007 	-8.02031e-06 	-1.3207e-06 30.0007 	-8.0203e-06 	-1.3207e-06 30.0007 	-8.0203e-06 	-1.3207e-06 30.0004 	-3.25119e-06 	-3.37794e-06 30.0007 	-7.88151e-06 	-1.16798e-06 30.0007 	-7.8815e-06 	-1.16798e-06 30.0007 	-7.8815e-06 	-1.16798e-06 30.0007 	-7.8815e-06 	-1.16798e-06 30.0004 	-1.0385e-07 	-3.40287e-06 30.0007 	-7.74557e-06 	-1.00786e-06 30.0007 	-7.74557e-06 	-1.00786e-06 30.0007 	-7.74556e-06 	-1.00786e-06 30.0007 	-7.74556e-06 	-1.00786e-06 30.0004 	-1.05553e-07 	-3.10326e-06 30.0007 	-7.61142e-06 	-8.41848e-07 30.0007 	-7.61142e-06 	-8.41848e-07 30.0007 	-7.61142e-06 	-8.41847e-07 30.0007 	-7.61141e-06 	-8.41847e-07 30.0004 	-2.932e-06 	-2.48787e-06 30.0007 	-7.47564e-06 	-6.70197e-07 30.0007 	-7.47564e-06 	-6.70197e-07 30.0007 	-7.47564e-06 	-6.70197e-07 30.0007 	-7.47564e-06 	-6.70196e-07 30.0004 	-2.82552e-06 	-2.18311e-06 30.0007 	-7.34351e-06 	-4.97046e-07 30.0007 	-7.34351e-06 	-4.97046e-07 30.0007 	-7.34351e-06 	-4.97046e-07 30.0007 	-7.34351e-06 	-4.97046e-07 30.0004 	-1.10617e-07 	-2.17109e-06 30.0007 	-7.21571e-06 	-3.17316e-07 30.0007 	-7.21571e-06 	-3.17316e-07 30.0007 	-7.21571e-06 	-3.17316e-07 30.0007 	-7.21571e-06 	-3.17316e-07 30.0004 	-1.12278e-07 	-1.85334e-06 30.0007 	-7.09895e-06 	-1.38209e-07 30.0007 	-7.09895e-06 	-1.38209e-07 30.0007 	-7.09894e-06 	-1.38209e-07 30.0007 	-7.09894e-06 	-1.38209e-07 30.0004 	-1.13923e-07 	-1.54901e-06 30.0007 	-6.98559e-06 	4.08546e-08 30.0007 	-6.98559e-06 	4.08546e-08 30.0007 	-6.98559e-06 	4.08546e-08 30.0007 	-6.98559e-06 	4.08546e-08 30.0004 	-2.43904e-06 	-9.58494e-07 30.0007 	-6.87196e-06 	2.1468e-07 30.0007 	-6.87196e-06 	2.1468e-07 30.0007 	-6.87196e-06 	2.1468e-07 30.0007 	-6.87197e-06 	2.1468e-07 30.0004 	-2.34742e-06 	-6.82288e-07 30.0007 	-6.75375e-06 	3.90732e-07 30.0007 	-6.75375e-06 	3.90732e-07 30.0007 	-6.75375e-06 	3.90732e-07 30.0007 	-6.75375e-06 	3.90732e-07 30.0004 	-1.18856e-07 	-7.09755e-07 30.0007 	-6.64324e-06 	5.64375e-07 30.0007 	-6.64324e-06 	5.64375e-07 30.0007 	-6.64324e-06 	5.64375e-07 30.0007 	-6.64324e-06 	5.64375e-07 30.0004 	-2.16705e-06 	-1.4543e-07 30.0007 	-6.53629e-06 	7.27396e-07 30.0007 	-6.53629e-06 	7.27396e-07 30.0007 	-6.53629e-06 	7.27396e-07 30.0007 	-6.53629e-06 	7.27396e-07 30.0004 	-2.08139e-06 	1.13848e-07 30.0007 	-6.43101e-06 	8.7884e-07 30.0007 	-6.43101e-06 	8.78841e-07 30.0007 	-6.43101e-06 	8.78841e-07 30.0007 	-6.43101e-06 	8.78841e-07 30.0004 	-1.23765e-07 	7.06001e-08 30.0007 	-6.32344e-06 	1.01778e-06 30.0007 	-6.32345e-06 	1.01778e-06 30.0007 	-6.32345e-06 	1.01778e-06 30.0007 	-6.32345e-06 	1.01778e-06 30.0004 	-1.25354e-07 	3.15831e-07 30.0007 	-6.21709e-06 	1.14061e-06 30.0007 	-6.21709e-06 	1.14061e-06 30.0007 	-6.21709e-06 	1.14061e-06 30.0007 	-6.21709e-06 	1.14061e-06 30.0004 	-1.2694e-07 	5.45548e-07 30.0007 	-6.11583e-06 	1.25631e-06 30.0007 	-6.11584e-06 	1.25631e-06 30.0007 	-6.11584e-06 	1.25631e-06 30.0007 	-6.11584e-06 	1.25631e-06 30.0004 	-1.76463e-06 	1.0321e-06 30.0007 	-6.02311e-06 	1.37127e-06 30.0007 	-6.02311e-06 	1.37127e-06 30.0007 	-6.02312e-06 	1.37127e-06 30.0007 	-6.02312e-06 	1.37127e-06 30.0004 	-1.30059e-07 	9.36965e-07 30.0007 	-5.94345e-06 	1.4885e-06 30.0007 	-5.94345e-06 	1.4885e-06 30.0007 	-5.94345e-06 	1.4885e-06 30.0007 	-5.94346e-06 	1.4885e-06 30.0004 	-1.31561e-07 	1.10458e-06 30.0007 	-5.87218e-06 	1.59288e-06 30.0007 	-5.87219e-06 	1.59288e-06 30.0007 	-5.87219e-06 	1.59289e-06 30.0007 	-5.87219e-06 	1.59289e-06 30.0004 	-1.59171e-06 	1.53878e-06 30.0007 	-5.80255e-06 	1.67931e-06 30.0007 	-5.80255e-06 	1.67931e-06 30.0007 	-5.80256e-06 	1.67931e-06 30.0007 	-5.80256e-06 	1.67931e-06 30.0003 	-1.54449e-06 	1.67824e-06 30.0007 	-5.73447e-06 	1.7501e-06 30.0007 	-5.73448e-06 	1.75011e-06 30.0007 	-5.73448e-06 	1.75011e-06 30.0007 	-5.73448e-06 	1.75011e-06 30.0003 	-1.3626e-07 	1.52476e-06 30.0006 	-5.66935e-06 	1.80981e-06 30.0006 	-5.66935e-06 	1.80981e-06 30.0006 	-5.66936e-06 	1.80981e-06 30.0006 	-5.66936e-06 	1.80981e-06 30.0003 	-1.3782e-07 	1.6323e-06 30.0006 	-5.6093e-06 	1.85994e-06 30.0006 	-5.6093e-06 	1.85995e-06 30.0006 	-5.60931e-06 	1.85995e-06 30.0006 	-5.60931e-06 	1.85995e-06 30.0003 	-1.39297e-07 	1.72403e-06 30.0006 	-5.55505e-06 	1.90043e-06 30.0006 	-5.55505e-06 	1.90043e-06 30.0006 	-5.55506e-06 	1.90043e-06 30.0006 	-5.55506e-06 	1.90043e-06 30.0003 	-1.38925e-06 	2.07106e-06 30.0006 	-5.50626e-06 	1.9311e-06 30.0006 	-5.50626e-06 	1.9311e-06 30.0006 	-5.50626e-06 	1.9311e-06 30.0006 	-5.50627e-06 	1.9311e-06 30.0003 	-1.36223e-06 	2.131e-06 30.0006 	-5.46251e-06 	1.95182e-06 30.0006 	-5.46251e-06 	1.95182e-06 30.0006 	-5.46252e-06 	1.95182e-06 30.0006 	-5.46252e-06 	1.95183e-06 30.0003 	-1.4336e-07 	1.90829e-06 30.0006 	-5.4238e-06 	1.96277e-06 30.0006 	-5.42381e-06 	1.96277e-06 30.0006 	-5.42381e-06 	1.96277e-06 30.0006 	-5.42382e-06 	1.96278e-06 30.0003 	-1.32387e-06 	2.20768e-06 30.0006 	-5.38986e-06 	1.9643e-06 30.0006 	-5.38986e-06 	1.9643e-06 30.0006 	-5.38986e-06 	1.9643e-06 30.0006 	-5.38987e-06 	1.96431e-06 30.0003 	-1.31209e-06 	2.22559e-06 30.0006 	-5.36072e-06 	1.95693e-06 30.0006 	-5.36072e-06 	1.95693e-06 30.0006 	-5.36073e-06 	1.95693e-06 30.0006 	-5.36073e-06 	1.95693e-06 30.0003 	-1.4729e-07 	1.96621e-06 30.0005 	-5.33616e-06 	1.94111e-06 30.0005 	-5.33616e-06 	1.94112e-06 30.0005 	-5.33617e-06 	1.94112e-06 30.0005 	-5.33617e-06 	1.94112e-06 30.0003 	-1.48537e-07 	1.9606e-06 30.0005 	-5.3161e-06 	1.91791e-06 30.0005 	-5.31611e-06 	1.91791e-06 30.0005 	-5.31611e-06 	1.91791e-06 30.0005 	-5.31612e-06 	1.91791e-06 30.0003 	-1.49744e-07 	1.94427e-06 30.0005 	-5.30055e-06 	1.88799e-06 30.0005 	-5.30055e-06 	1.88799e-06 30.0005 	-5.30056e-06 	1.888e-06 30.0005 	-5.30056e-06 	1.888e-06 30.0003 	-1.30951e-06 	2.17903e-06 30.0005 	-5.28924e-06 	1.8519e-06 30.0005 	-5.28924e-06 	1.85191e-06 30.0005 	-5.28924e-06 	1.85191e-06 30.0005 	-5.28925e-06 	1.85191e-06 30.0003 	-1.52103e-07 	1.88233e-06 30.0005 	-5.28203e-06 	1.81008e-06 30.0005 	-5.28203e-06 	1.81008e-06 30.0005 	-5.28203e-06 	1.81008e-06 30.0005 	-5.28204e-06 	1.81008e-06 30.0003 	-1.53226e-07 	1.83821e-06 30.0005 	-5.27859e-06 	1.76316e-06 30.0005 	-5.27859e-06 	1.76316e-06 30.0005 	-5.2786e-06 	1.76316e-06 30.0005 	-5.2786e-06 	1.76316e-06 30.0003 	-1.34877e-06 	2.04411e-06 30.0005 	-5.27881e-06 	1.71162e-06 30.0005 	-5.27881e-06 	1.71162e-06 30.0005 	-5.27882e-06 	1.71162e-06 30.0005 	-5.27882e-06 	1.71162e-06 30.0003 	-1.36885e-06 	1.98428e-06 30.0005 	-5.28238e-06 	1.65599e-06 30.0005 	-5.28238e-06 	1.656e-06 30.0005 	-5.28239e-06 	1.656e-06 30.0005 	-5.28239e-06 	1.656e-06 30.0002 	-1.56462e-07 	1.66284e-06 30.0005 	-5.28917e-06 	1.59669e-06 30.0005 	-5.28918e-06 	1.59669e-06 30.0005 	-5.28918e-06 	1.59669e-06 30.0005 	-5.28918e-06 	1.59669e-06 30.0002 	-1.57513e-07 	1.59259e-06 30.0004 	-5.29908e-06 	1.53416e-06 30.0004 	-5.29908e-06 	1.53416e-06 30.0004 	-5.29908e-06 	1.53417e-06 30.0004 	-5.29908e-06 	1.53417e-06 30.0002 	-1.58584e-07 	1.51773e-06 30.0004 	-5.312e-06 	1.4689e-06 30.0004 	-5.31201e-06 	1.4689e-06 30.0004 	-5.31201e-06 	1.4689e-06 30.0004 	-5.31201e-06 	1.46891e-06 30.0002 	-1.48049e-06 	1.69067e-06 30.0004 	-5.32754e-06 	1.40145e-06 30.0004 	-5.32755e-06 	1.40146e-06 30.0004 	-5.32755e-06 	1.40146e-06 30.0004 	-5.32755e-06 	1.40146e-06 30.0002 	-1.51501e-06 	1.60717e-06 30.0004 	-5.34547e-06 	1.3322e-06 30.0004 	-5.34548e-06 	1.3322e-06 30.0004 	-5.34548e-06 	1.3322e-06 30.0004 	-5.34548e-06 	1.3322e-06 30.0002 	-1.61841e-07 	1.27191e-06 30.0004 	-5.36542e-06 	1.26149e-06 30.0004 	-5.36543e-06 	1.26149e-06 30.0004 	-5.36543e-06 	1.26149e-06 30.0004 	-5.36543e-06 	1.26149e-06 30.0002 	-1.59031e-06 	1.43252e-06 30.0004 	-5.38726e-06 	1.18981e-06 30.0004 	-5.38726e-06 	1.18981e-06 30.0004 	-5.38726e-06 	1.18981e-06 30.0004 	-5.38726e-06 	1.18982e-06 30.0002 	-1.63081e-06 	1.34245e-06 30.0004 	-5.41092e-06 	1.1175e-06 30.0004 	-5.41092e-06 	1.1175e-06 30.0004 	-5.41092e-06 	1.1175e-06 30.0004 	-5.41092e-06 	1.1175e-06 30.0002 	-1.64867e-07 	1.00613e-06 30.0004 	-5.43619e-06 	1.04481e-06 30.0004 	-5.43619e-06 	1.04481e-06 30.0004 	-5.43619e-06 	1.04481e-06 30.0004 	-5.43619e-06 	1.04481e-06 30.0002 	-1.65842e-07 	9.1565e-07 30.0004 	-5.46188e-06 	9.72281e-07 30.0004 	-5.46188e-06 	9.72281e-07 30.0004 	-5.46188e-06 	9.72281e-07 30.0004 	-5.46188e-06 	9.72282e-07 30.0002 	-1.6674e-07 	8.25027e-07 30.0004 	-5.48785e-06 	8.99488e-07 30.0004 	-5.48786e-06 	8.99488e-07 30.0004 	-5.48786e-06 	8.99488e-07 30.0004 	-5.48786e-06 	8.99489e-07 30.0002 	-1.80778e-06 	9.75455e-07 30.0004 	-5.51462e-06 	8.25966e-07 30.0004 	-5.51462e-06 	8.25967e-07 30.0004 	-5.51463e-06 	8.25967e-07 30.0004 	-5.51463e-06 	8.25967e-07 30.0002 	-1.68411e-07 	6.43662e-07 30.0003 	-5.54436e-06 	7.52e-07 30.0003 	-5.54436e-06 	7.52e-07 30.0003 	-5.54436e-06 	7.52e-07 30.0003 	-5.54436e-06 	7.52e-07 30.0002 	-1.69226e-07 	5.52663e-07 30.0003 	-5.57881e-06 	6.77455e-07 30.0003 	-5.57881e-06 	6.77455e-07 30.0003 	-5.57881e-06 	6.77455e-07 30.0003 	-5.57881e-06 	6.77455e-07 30.0002 	-1.95609e-06 	7.01337e-07 30.0003 	-5.61563e-06 	6.04379e-07 30.0003 	-5.61563e-06 	6.04379e-07 30.0003 	-5.61564e-06 	6.04379e-07 30.0003 	-5.61564e-06 	6.0438e-07 30.0002 	-2.00826e-06 	6.11706e-07 30.0003 	-5.6517e-06 	5.34674e-07 30.0003 	-5.6517e-06 	5.34674e-07 30.0003 	-5.6517e-06 	5.34674e-07 30.0003 	-5.6517e-06 	5.34674e-07 30.0002 	-1.717e-07 	2.80971e-07 30.0003 	-5.68277e-06 	4.67649e-07 30.0003 	-5.68277e-06 	4.67649e-07 30.0003 	-5.68277e-06 	4.67649e-07 30.0003 	-5.68278e-06 	4.67649e-07 30.0002 	-1.72521e-07 	1.97358e-07 30.0003 	-5.7112e-06 	4.03212e-07 30.0003 	-5.71121e-06 	4.03212e-07 30.0003 	-5.71121e-06 	4.03212e-07 30.0003 	-5.71121e-06 	4.03212e-07 30.0002 	-1.73324e-07 	1.16428e-07 30.0003 	-5.73941e-06 	3.39246e-07 30.0003 	-5.73941e-06 	3.39246e-07 30.0003 	-5.73941e-06 	3.39246e-07 30.0003 	-5.73942e-06 	3.39246e-07 30.0002 	-2.20154e-06 	2.74108e-07 30.0003 	-5.76741e-06 	2.75285e-07 30.0003 	-5.76741e-06 	2.75285e-07 30.0003 	-5.76741e-06 	2.75285e-07 30.0003 	-5.76741e-06 	2.75285e-07 30.0002 	-2.24848e-06 	1.96362e-07 30.0003 	-5.79412e-06 	2.10786e-07 30.0003 	-5.79412e-06 	2.10786e-07 30.0003 	-5.79412e-06 	2.10786e-07 30.0003 	-5.79412e-06 	2.10786e-07 30.0002 	-1.75493e-07 	-1.09127e-07 30.0003 	-5.8222e-06 	1.4878e-07 30.0003 	-5.8222e-06 	1.4878e-07 30.0003 	-5.8222e-06 	1.4878e-07 30.0003 	-5.8222e-06 	1.4878e-07 30.0002 	-2.34225e-06 	4.46686e-08 30.0003 	-5.85142e-06 	8.99785e-08 30.0003 	-5.85142e-06 	8.99785e-08 30.0003 	-5.85142e-06 	8.99785e-08 30.0003 	-5.85142e-06 	8.99785e-08 30.0002 	-2.38954e-06 	-2.9103e-08 30.0003 	-5.8818e-06 	3.48188e-08 30.0003 	-5.8818e-06 	3.48188e-08 30.0003 	-5.8818e-06 	3.48188e-08 30.0003 	-5.8818e-06 	3.48188e-08 30.0002 	-1.77441e-07 	-3.30763e-07 30.0003 	-5.9134e-06 	-1.70906e-08 30.0003 	-5.9134e-06 	-1.70906e-08 30.0003 	-5.9134e-06 	-1.70906e-08 30.0003 	-5.9134e-06 	-1.70906e-08 30.0002 	-1.78046e-07 	-4.01808e-07 30.0003 	-5.94651e-06 	-6.90682e-08 30.0003 	-5.94651e-06 	-6.90682e-08 30.0003 	-5.94651e-06 	-6.90682e-08 30.0003 	-5.94651e-06 	-6.90682e-08 30.0002 	-1.78645e-07 	-4.6708e-07 30.0003 	-5.97846e-06 	-1.2334e-07 30.0003 	-5.97846e-06 	-1.2334e-07 30.0003 	-5.97846e-06 	-1.2334e-07 30.0003 	-5.97846e-06 	-1.2334e-07 30.0002 	-2.58097e-06 	-3.01387e-07 30.0003 	-6.00624e-06 	-1.77968e-07 30.0003 	-6.00624e-06 	-1.77968e-07 30.0003 	-6.00624e-06 	-1.77968e-07 30.0003 	-6.00624e-06 	-1.77968e-07 30.0002 	-1.79822e-07 	-5.84887e-07 30.0003 	-6.03034e-06 	-2.29233e-07 30.0003 	-6.03034e-06 	-2.29233e-07 30.0003 	-6.03033e-06 	-2.29233e-07 30.0003 	-6.03033e-06 	-2.29233e-07 30.0002 	-1.80415e-07 	-6.42153e-07 30.0003 	-6.0536e-06 	-2.76192e-07 30.0003 	-6.0536e-06 	-2.76192e-07 30.0003 	-6.0536e-06 	-2.76192e-07 30.0003 	-6.0536e-06 	-2.76192e-07 30.0002 	-2.70903e-06 	-4.78998e-07 30.0003 	-6.07747e-06 	-3.19685e-07 30.0003 	-6.07747e-06 	-3.19685e-07 30.0003 	-6.07747e-06 	-3.19685e-07 30.0003 	-6.07747e-06 	-3.19685e-07 30.0002 	-2.75006e-06 	-5.34043e-07 30.0003 	-6.1017e-06 	-3.61203e-07 30.0003 	-6.1017e-06 	-3.61203e-07 30.0003 	-6.1017e-06 	-3.61203e-07 30.0003 	-6.1017e-06 	-3.61203e-07 30.0002 	-1.82165e-07 	-8.0379e-07 30.0003 	-6.12575e-06 	-4.01403e-07 30.0003 	-6.12574e-06 	-4.01403e-07 30.0003 	-6.12574e-06 	-4.01403e-07 30.0003 	-6.12574e-06 	-4.01403e-07 30.0001 	-1.82699e-07 	-8.53107e-07 30.0003 	-6.1491e-06 	-4.40394e-07 30.0003 	-6.1491e-06 	-4.40394e-07 30.0003 	-6.1491e-06 	-4.40394e-07 30.0003 	-6.1491e-06 	-4.40394e-07 30.0001 	-1.83217e-07 	-9.00314e-07 30.0003 	-6.17173e-06 	-4.78016e-07 30.0003 	-6.17173e-06 	-4.78016e-07 30.0003 	-6.17173e-06 	-4.78015e-07 30.0003 	-6.17173e-06 	-4.78015e-07 30.0001 	-2.90955e-06 	-7.31463e-07 30.0003 	-6.19349e-06 	-5.14227e-07 30.0003 	-6.19349e-06 	-5.14227e-07 30.0003 	-6.19349e-06 	-5.14227e-07 30.0003 	-6.19349e-06 	-5.14227e-07 30.0001 	-2.94742e-06 	-7.75592e-07 30.0003 	-6.21448e-06 	-5.48861e-07 30.0003 	-6.21447e-06 	-5.48861e-07 30.0003 	-6.21447e-06 	-5.48861e-07 30.0003 	-6.21447e-06 	-5.4886e-07 30.0001 	-1.84701e-07 	-1.02953e-06 30.0003 	-6.23438e-06 	-5.82078e-07 30.0003 	-6.23438e-06 	-5.82078e-07 30.0003 	-6.23438e-06 	-5.82078e-07 30.0003 	-6.23438e-06 	-5.82078e-07 30.0001 	-3.02033e-06 	-8.57484e-07 30.0003 	-6.25364e-06 	-6.1392e-07 30.0003 	-6.25364e-06 	-6.1392e-07 30.0003 	-6.25364e-06 	-6.1392e-07 30.0003 	-6.25364e-06 	-6.1392e-07 30.0001 	-3.0554e-06 	-8.95487e-07 30.0003 	-6.27207e-06 	-6.4444e-07 30.0003 	-6.27207e-06 	-6.4444e-07 30.0003 	-6.27207e-06 	-6.4444e-07 30.0003 	-6.27207e-06 	-6.44439e-07 30.0001 	-1.86096e-07 	-1.14085e-06 30.0003 	-6.28982e-06 	-6.73645e-07 30.0003 	-6.28981e-06 	-6.73645e-07 30.0003 	-6.28981e-06 	-6.73645e-07 30.0003 	-6.28981e-06 	-6.73644e-07 30.0001 	-1.86569e-07 	-1.17461e-06 30.0003 	-6.30684e-06 	-7.01459e-07 30.0003 	-6.30684e-06 	-7.01459e-07 30.0003 	-6.30684e-06 	-7.01459e-07 30.0003 	-6.30684e-06 	-7.01459e-07 30.0001 	-1.87016e-07 	-1.20669e-06 30.0003 	-6.32294e-06 	-7.27891e-07 30.0003 	-6.32294e-06 	-7.27891e-07 30.0003 	-6.32294e-06 	-7.27891e-07 30.0003 	-6.32294e-06 	-7.27891e-07 30.0001 	-3.18688e-06 	-1.03101e-06 30.0003 	-6.33823e-06 	-7.53003e-07 30.0003 	-6.33822e-06 	-7.53003e-07 30.0003 	-6.33822e-06 	-7.53003e-07 30.0003 	-6.33822e-06 	-7.53003e-07 30.0001 	-1.8787e-07 	-1.26597e-06 30.0003 	-6.35277e-06 	-7.76968e-07 30.0003 	-6.35277e-06 	-7.76967e-07 30.0003 	-6.35277e-06 	-7.76967e-07 30.0003 	-6.35276e-06 	-7.76967e-07 30.0001 	-1.88267e-07 	-1.29332e-06 30.0003 	-6.36653e-06 	-7.99847e-07 30.0003 	-6.36653e-06 	-7.99847e-07 30.0003 	-6.36652e-06 	-7.99846e-07 30.0003 	-6.36652e-06 	-7.99846e-07 30.0001 	-3.27628e-06 	-1.11606e-06 30.0003 	-6.37955e-06 	-8.2157e-07 30.0003 	-6.37955e-06 	-8.2157e-07 30.0003 	-6.37954e-06 	-8.21569e-07 30.0003 	-6.37954e-06 	-8.21569e-07 30.0001 	-3.30438e-06 	-1.14153e-06 30.0003 	-6.39187e-06 	-8.42013e-07 30.0003 	-6.39186e-06 	-8.42012e-07 30.0003 	-6.39186e-06 	-8.42012e-07 30.0003 	-6.39186e-06 	-8.42012e-07 30.0001 	-1.89424e-07 	-1.36685e-06 30.0003 	-6.40347e-06 	-8.61386e-07 30.0003 	-6.40347e-06 	-8.61386e-07 30.0003 	-6.40347e-06 	-8.61385e-07 30.0003 	-6.40347e-06 	-8.61385e-07 30.0001 	-1.89791e-07 	-1.38872e-06 30.0003 	-6.41435e-06 	-8.79831e-07 30.0003 	-6.41435e-06 	-8.79831e-07 30.0003 	-6.41435e-06 	-8.7983e-07 30.0003 	-6.41435e-06 	-8.7983e-07 30.0001 	-1.90156e-07 	-1.40938e-06 30.0003 	-6.42457e-06 	-8.97316e-07 30.0003 	-6.42457e-06 	-8.97316e-07 30.0003 	-6.42457e-06 	-8.97315e-07 30.0003 	-6.42456e-06 	-8.97315e-07 30.0001 	-3.40857e-06 	-1.23051e-06 30.0003 	-6.43414e-06 	-9.1389e-07 30.0003 	-6.43414e-06 	-9.1389e-07 30.0003 	-6.43414e-06 	-9.13889e-07 30.0003 	-6.43414e-06 	-9.13889e-07 30.0001 	-3.43266e-06 	-1.24984e-06 30.0003 	-6.44285e-06 	-9.29593e-07 30.0003 	-6.44285e-06 	-9.29593e-07 30.0003 	-6.44285e-06 	-9.29593e-07 30.0003 	-6.44284e-06 	-9.29592e-07 30.0001 	-1.91208e-07 	-1.46455e-06 30.0003 	-6.45106e-06 	-9.44452e-07 30.0003 	-6.45106e-06 	-9.44452e-07 30.0003 	-6.45105e-06 	-9.44451e-07 30.0003 	-6.45105e-06 	-9.44451e-07 30.0001 	-3.47869e-06 	-1.28534e-06 30.0003 	-6.45877e-06 	-9.58478e-07 30.0003 	-6.45877e-06 	-9.58478e-07 30.0003 	-6.45877e-06 	-9.58477e-07 30.0003 	-6.45876e-06 	-9.58477e-07 30.0001 	-3.50076e-06 	-1.30161e-06 30.0003 	-6.46583e-06 	-9.71765e-07 30.0003 	-6.46582e-06 	-9.71764e-07 30.0003 	-6.46582e-06 	-9.71764e-07 30.0003 	-6.46582e-06 	-9.71764e-07 30.0001 	-1.92272e-07 	-1.51059e-06 30.0003 	-6.47275e