# vtk DataFile Version 2.0
track0
ASCII
DATASET POLYDATA
POINTS 15780 float
-1.001 -0.05 0.0011
-1.0008 -0.05 0.0011
-1.0006 -0.05 0.0011
-1.0004 -0.05 0.0011
-1.0002 -0.05 0.0011
-1 -0.05 0.0011
-0.9875 -0.05 0.0011
-0.975 -0.05 0.0011
-0.9625 -0.05 0.0011
-0.95 -0.05 0.0011
-0.9375 -0.05 0.00109999
-0.925 -0.05 0.00109999
-0.9125 -0.05 0.00109999
-0.9 -0.05 0.00109999
-0.8875 -0.05 0.00109999
-0.875 -0.05 0.00109999
-0.8625 -0.05 0.00109999
-0.85 -0.05 0.00109999
-0.8375 -0.05 0.00109998
-0.825 -0.0500001 0.00109998
-0.8125 -0.0500001 0.00109998
-0.8 -0.0500001 0.00109998
-0.7875 -0.0500001 0.00109998
-0.775 -0.0500001 0.00109998
-0.7625 -0.0500001 0.00109998
-0.75 -0.0500001 0.00109998
-0.7375 -0.0500001 0.00109997
-0.725 -0.0500001 0.00109997
-0.7125 -0.0500001 0.00109997
-0.7 -0.0500001 0.00109997
-0.6875 -0.0500001 0.00109997
-0.675 -0.0500001 0.00109997
-0.6625 -0.0500001 0.00109997
-0.65 -0.0500001 0.00109996
-0.6375 -0.0500001 0.00109996
-0.625 -0.0500001 0.00109996
-0.6125 -0.0500001 0.00109996
-0.6 -0.0500001 0.00109996
-0.5875 -0.0500001 0.00109996
-0.575 -0.0500001 0.00109996
-0.5625 -0.0500001 0.00109996
-0.55 -0.0500001 0.00109995
-0.5375 -0.0500001 0.00109995
-0.525 -0.0500001 0.00109995
-0.5125 -0.0500001 0.00109995
-0.5 -0.0500001 0.00109995
-0.4875 -0.0500001 0.00109995
-0.475 -0.0500001 0.00109995
-0.4625 -0.0500001 0.00109994
-0.45 -0.0500002 0.00109994
-0.4375 -0.0500002 0.00109994
-0.425 -0.0500002 0.00109994
-0.4125 -0.0500002 0.00109994
-0.4 -0.0500002 0.00109994
-0.3875 -0.0500002 0.00109994
-0.375 -0.0500002 0.00109994
-0.3625 -0.0500002 0.00109993
-0.35 -0.0500002 0.00109993
-0.3375 -0.0500002 0.00109993
-0.325 -0.0500002 0.00109993
-0.3125 -0.0500002 0.00109993
-0.3 -0.0500002 0.00109993
-0.2875 -0.0500002 0.00109993
-0.275 -0.0500002 0.00109993
-0.2625 -0.0500002 0.00109992
-0.25 -0.0500002 0.00109992
-0.2375 -0.0500002 0.00109992
-0.225 -0.0500002 0.00109992
-0.2125 -0.0500002 0.00109992
-0.2 -0.0500002 0.00109992
-0.1875 -0.0500002 0.00109992
-0.175 -0.0500002 0.00109992
-0.1625 -0.0500002 0.00109991
-0.15 -0.0500002 0.00109991
-0.1375 -0.0500002 0.00109991
-0.125 -0.0500002 0.00109991
-0.1125 -0.0500002 0.00109991
-0.1 -0.0500002 0.00109991
-0.0875 -0.0500002 0.00109991
-0.075 -0.0500002 0.00109991
-0.0625 -0.0500002 0.00109991
-0.05 -0.0500003 0.00109991
-0.0375 -0.0500003 0.0010999
-0.025 -0.0500003 0.0010999
-0.0125 -0.0500003 0.0010999
2.10607e-13 -0.0500003 0.0010999
0.0125 -0.0500003 0.0010999
0.025 -0.0500003 0.0010999
0.0375 -0.0500003 0.0010999
0.05 -0.0500003 0.0010999
0.0625 -0.0500003 0.0010999
0.075 -0.0500003 0.0010999
0.0875 -0.0500003 0.0010999
0.1 -0.0500003 0.00109989
0.1125 -0.0500003 0.00109989
0.125 -0.0500003 0.00109989
0.1375 -0.0500003 0.00109989
0.15 -0.0500003 0.00109989
0.1625 -0.0500003 0.00109989
0.175 -0.0500003 0.00109989
0.1875 -0.0500003 0.00109989
0.2 -0.0500003 0.00109989
0.2125 -0.0500003 0.00109989
0.225 -0.0500003 0.00109989
0.2375 -0.0500003 0.00109989
0.25 -0.0500003 0.00109989
0.2625 -0.0500003 0.00109988
0.275 -0.0500003 0.00109988
0.2875 -0.0500003 0.00109988
0.3 -0.0500003 0.00109988
0.3125 -0.0500003 0.00109988
0.325 -0.0500003 0.00109988
0.3375 -0.0500003 0.00109988
0.35 -0.0500003 0.00109988
0.3625 -0.0500003 0.00109988
0.375 -0.0500003 0.00109988
0.3875 -0.0500003 0.00109988
0.4 -0.0500004 0.00109988
0.4125 -0.0500004 0.00109988
0.425 -0.0500004 0.00109988
0.4375 -0.0500004 0.00109988
0.45 -0.0500004 0.00109988
0.4625 -0.0500004 0.00109988
0.475 -0.0500004 0.00109988
0.4875 -0.0500004 0.00109988
0.5 -0.0500004 0.00109988
0.5125 -0.0500004 0.00109988
0.525 -0.0500004 0.00109988
0.5375 -0.0500004 0.00109988
0.55 -0.0500004 0.00109988
0.5625 -0.0500004 0.00109988
0.575 -0.0500004 0.00109987
0.5875 -0.0500004 0.00109987
0.6 -0.0500004 0.00109987
0.6125 -0.0500004 0.00109987
0.625 -0.0500004 0.00109987
0.6375 -0.0500004 0.00109987
0.65 -0.0500004 0.00109987
0.6625 -0.0500004 0.00109987
0.675 -0.0500004 0.00109987
0.6875 -0.0500004 0.00109987
0.7 -0.0500004 0.00109987
0.7125 -0.0500004 0.00109987
0.725 -0.0500004 0.00109987
0.7375 -0.0500004 0.00109987
0.75 -0.0500004 0.00109987
0.7625 -0.0500004 0.00109987
0.775 -0.0500004 0.00109987
0.7875 -0.0500004 0.00109987
0.8 -0.0500004 0.00109987
0.8125 -0.0500004 0.00109987
0.825 -0.0500004 0.00109987
0.8375 -0.0500004 0.00109987
0.85 -0.0500004 0.00109987
0.8625 -0.0500004 0.00109987
0.875 -0.0500004 0.00109987
0.8875 -0.0500004 0.00109987
0.9 -0.0500004 0.00109987
0.9125 -0.0500005 0.00109988
0.925 -0.0500005 0.00109988
0.9375 -0.0500005 0.00109988
0.95 -0.0500005 0.00109988
0.9625 -0.0500005 0.00109988
0.975 -0.0500005 0.00109988
0.9875 -0.0500005 0.00109988
1 -0.0500005 0.00109988
1.0125 -0.0500005 0.00109988
1.025 -0.0500005 0.00109988
1.0375 -0.0500005 0.00109988
1.05 -0.0500005 0.00109988
1.0625 -0.0500005 0.00109988
1.075 -0.0500005 0.00109988
1.0875 -0.0500005 0.00109988
1.1 -0.0500005 0.00109988
1.1125 -0.0500005 0.00109988
1.125 -0.0500005 0.00109988
1.1375 -0.0500005 0.00109988
1.15 -0.0500005 0.00109988
1.1625 -0.0500005 0.00109988
1.175 -0.0500005 0.00109988
1.1875 -0.0500005 0.00109988
1.2 -0.0500005 0.00109988
1.2125 -0.0500005 0.00109988
1.225 -0.0500005 0.00109988
1.2375 -0.0500005 0.00109989
1.25 -0.0500005 0.00109989
1.2625 -0.0500005 0.00109989
1.275 -0.0500005 0.00109989
1.2875 -0.0500005 0.00109989
1.3 -0.0500005 0.00109989
1.3125 -0.0500005 0.00109989
1.325 -0.0500005 0.00109989
1.3375 -0.0500005 0.00109989
1.35 -0.0500005 0.00109989
1.3625 -0.0500005 0.00109989
1.375 -0.0500005 0.00109989
1.3875 -0.0500005 0.00109989
1.4 -0.0500005 0.00109989
1.4125 -0.0500005 0.00109989
1.425 -0.0500005 0.00109989
1.4375 -0.0500005 0.0010999
1.45 -0.0500005 0.0010999
1.4625 -0.0500005 0.0010999
1.475 -0.0500005 0.0010999
1.4875 -0.0500005 0.0010999
1.5 -0.0500006 0.0010999
1.5125 -0.0500006 0.0010999
1.525 -0.0500006 0.0010999
1.5375 -0.0500006 0.0010999
1.55 -0.0500006 0.0010999
1.5625 -0.0500006 0.0010999
1.575 -0.0500006 0.0010999
1.5875 -0.0500006 0.0010999
1.6 -0.0500006 0.0010999
1.6125 -0.0500006 0.00109991
1.625 -0.0500006 0.00109991
1.6375 -0.0500006 0.00109991
1.65 -0.0500006 0.00109991
1.6625 -0.0500006 0.00109991
1.675 -0.0500006 0.00109991
1.6875 -0.0500006 0.00109991
1.7 -0.0500006 0.00109991
1.7125 -0.0500006 0.00109991
1.725 -0.0500006 0.00109991
1.7375 -0.0500006 0.00109991
1.75 -0.0500006 0.00109991
1.7625 -0.0500006 0.00109992
1.775 -0.0500006 0.00109992
1.7875 -0.0500006 0.00109992
1.8 -0.0500006 0.00109992
1.8125 -0.0500006 0.00109992
1.825 -0.0500006 0.00109992
1.8375 -0.0500006 0.00109992
1.85 -0.0500006 0.00109992
1.8625 -0.0500006 0.00109992
1.875 -0.0500006 0.00109992
1.8875 -0.0500006 0.00109992
1.9 -0.0500006 0.00109992
1.9125 -0.0500006 0.00109993
1.925 -0.0500006 0.00109993
1.9375 -0.0500006 0.00109993
1.95 -0.0500006 0.00109993
1.9625 -0.0500006 0.00109993
1.975 -0.0500006 0.00109993
1.9875 -0.0500006 0.00109993
2 -0.0500006 0.00109993
2.0125 -0.0500006 0.00109993
2.025 -0.0500006 0.00109993
2.0375 -0.0500006 0.00109993
2.05 -0.0500006 0.00109993
2.0625 -0.0500006 0.00109993
2.075 -0.0500006 0.00109994
2.0875 -0.0500006 0.00109994
2.1 -0.0500006 0.00109994
2.1125 -0.0500006 0.00109994
2.125 -0.0500006 0.00109994
2.1375 -0.0500006 0.00109994
2.15 -0.0500006 0.00109994
2.1625 -0.0500006 0.00109994
2.175 -0.0500007 0.00109994
2.1875 -0.0500007 0.00109994
2.2 -0.0500007 0.00109994
2.2125 -0.0500007 0.00109994
2.225 -0.0500007 0.00109995
2.2375 -0.0500007 0.00109995
2.25 -0.0500007 0.00109995
2.2625 -0.0500007 0.00109995
2.275 -0.0500007 0.00109995
2.2875 -0.0500007 0.00109995
2.3 -0.0500007 0.00109995
2.3125 -0.0500007 0.00109995
2.325 -0.0500007 0.00109995
2.3375 -0.0500007 0.00109995
2.35 -0.0500007 0.00109995
2.3625 -0.0500007 0.00109995
2.375 -0.0500007 0.00109995
2.3875 -0.0500007 0.00109996
2.4 -0.0500007 0.00109996
2.4125 -0.0500007 0.00109996
2.425 -0.0500007 0.00109996
2.4375 -0.0500007 0.00109996
2.45 -0.0500007 0.00109996
2.4625 -0.0500007 0.00109996
2.475 -0.0500007 0.00109996
2.4875 -0.0500007 0.00109996
2.5 -0.0500007 0.00109996
2.5125 -0.0500007 0.00109996
2.525 -0.0500007 0.00109996
2.5375 -0.0500007 0.00109996
2.55 -0.0500007 0.00109996
2.5625 -0.0500007 0.00109997
2.575 -0.0500007 0.00109997
2.5875 -0.0500007 0.00109997
2.6 -0.0500007 0.00109997
2.6125 -0.0500007 0.00109997
2.625 -0.0500007 0.00109997
2.6375 -0.0500007 0.00109997
2.65 -0.0500007 0.00109997
2.6625 -0.0500007 0.00109997
2.675 -0.0500007 0.00109997
2.6875 -0.0500007 0.00109997
2.7 -0.0500007 0.00109997
2.7125 -0.0500007 0.00109997
2.725 -0.0500007 0.00109997
2.7375 -0.0500007 0.00109997
2.75 -0.0500007 0.00109997
2.7625 -0.0500007 0.00109998
2.775 -0.0500007 0.00109998
2.7875 -0.0500007 0.00109998
2.8 -0.0500007 0.00109998
2.8125 -0.0500007 0.00109998
2.825 -0.0500007 0.00109998
2.8375 -0.0500007 0.00109998
2.85 -0.0500007 0.00109998
2.8625 -0.0500008 0.00109998
2.875 -0.0500008 0.00109998
2.8875 -0.0500008 0.00109998
2.9 -0.0500008 0.00109998
2.9125 -0.0500008 0.00109998
2.925 -0.0500008 0.00109998
2.9375 -0.0500008 0.00109998
2.95 -0.0500008 0.00109998
2.9625 -0.0500008 0.00109998
2.975 -0.0500008 0.00109998
2.9875 -0.0500008 0.00109998
3 -0.0500008 0.00109998
3.0125 -0.0500008 0.00109999
3.025 -0.0500008 0.00109999
3.0375 -0.0500008 0.00109999
3.05 -0.0500008 0.00109999
3.0625 -0.0500008 0.00109999
3.075 -0.0500008 0.00109999
3.0875 -0.0500008 0.00109999
3.1 -0.0500008 0.00109999
3.1125 -0.0500008 0.00109999
3.125 -0.0500008 0.00109999
3.1375 -0.0500008 0.00109999
3.15 -0.0500008 0.00109999
3.1625 -0.0500008 0.00109999
3.175 -0.0500008 0.00109999
3.1875 -0.0500008 0.00109999
3.2 -0.0500008 0.00109999
3.2125 -0.0500008 0.00109999
3.225 -0.0500008 0.00109999
3.2375 -0.0500008 0.00109999
3.25 -0.0500008 0.00109999
3.2625 -0.0500008 0.00109999
3.275 -0.0500008 0.00109999
3.2875 -0.0500008 0.00109999
3.3 -0.0500008 0.00109999
3.3125 -0.0500008 0.00109999
3.325 -0.0500008 0.00109999
3.3375 -0.0500008 0.00109999
3.35 -0.0500008 0.0011
3.3625 -0.0500008 0.0011
[...]
POINT_DATA 15780
 FIELD attributes 1
U 3 15780 float
30.0002 	-7.0179e-06 	-6.30587e-06 30.0002 	-6.84341e-06 	-6.51454e-06 30.0002 	-6.66892e-06 	-6.7232e-06 30.0002 	-6.49443e-06 	-6.93187e-06 30.0002 	-6.31995e-06 	-7.14054e-06 30.0002 	-6.14546e-06 	-7.34921e-06 30.0004 	-1.23851e-05 	-1.261e-06 30.0004 	-1.23851e-05 	-1.261e-06 30.0004 	-1.23851e-05 	-1.261e-06 30.0004 	-1.23851e-05 	-1.261e-06 30.0002 	-7.05075e-08 	-6.84366e-06 30.0005 	-1.0709e-05 	-1.68705e-06 30.0005 	-1.0709e-05 	-1.68705e-06 30.0005 	-1.0709e-05 	-1.68705e-06 30.0005 	-1.0709e-05 	-1.68705e-06 30.0002 	-7.21837e-08 	-6.59607e-06 30.0005 	-9.95845e-06 	-2.08023e-06 30.0005 	-9.95844e-06 	-2.08022e-06 30.0005 	-9.95843e-06 	-2.08022e-06 30.0005 	-9.95843e-06 	-2.08022e-06 30.0003 	-4.59306e-06 	-6.24725e-06 30.0005 	-9.69167e-06 	-2.34895e-06 30.0005 	-9.69166e-06 	-2.34895e-06 30.0005 	-9.69166e-06 	-2.34895e-06 30.0005 	-9.69165e-06 	-2.34895e-06 30.0003 	-7.57593e-08 	-6.57615e-06 30.0005 	-9.52346e-06 	-2.49782e-06 30.0005 	-9.52345e-06 	-2.49782e-06 30.0005 	-9.52344e-06 	-2.49782e-06 30.0005 	-9.52343e-06 	-2.49781e-06 30.0003 	-7.75043e-08 	-6.52626e-06 30.0005 	-9.38708e-06 	-2.55606e-06 30.0005 	-9.38708e-06 	-2.55606e-06 30.0005 	-9.38707e-06 	-2.55606e-06 30.0005 	-9.38706e-06 	-2.55606e-06 30.0003 	-4.26685e-06 	-6.08528e-06 30.0005 	-9.27965e-06 	-2.55829e-06 30.0005 	-9.27964e-06 	-2.55829e-06 30.0005 	-9.27964e-06 	-2.55828e-06 30.0005 	-9.27963e-06 	-2.55828e-06 30.0003 	-4.19923e-06 	-5.97789e-06 30.0006 	-9.18741e-06 	-2.53042e-06 30.0006 	-9.1874e-06 	-2.53042e-06 30.0006 	-9.18739e-06 	-2.53042e-06 30.0006 	-9.18738e-06 	-2.53041e-06 30.0003 	-8.27674e-08 	-6.20126e-06 30.0006 	-9.09733e-06 	-2.48118e-06 30.0006 	-9.09732e-06 	-2.48117e-06 30.0006 	-9.09731e-06 	-2.48117e-06 30.0006 	-9.0973e-06 	-2.48117e-06 30.0003 	-8.45101e-08 	-6.05423e-06 30.0006 	-9.00486e-06 	-2.4136e-06 30.0006 	-9.00485e-06 	-2.4136e-06 30.0006 	-9.00484e-06 	-2.4136e-06 30.0006 	-9.00484e-06 	-2.4136e-06 30.0003 	-8.62602e-08 	-5.88782e-06 30.0006 	-8.90871e-06 	-2.32972e-06 30.0006 	-8.9087e-06 	-2.32972e-06 30.0006 	-8.9087e-06 	-2.32971e-06 30.0006 	-8.90869e-06 	-2.32971e-06 30.0003 	-3.93778e-06 	-5.36347e-06 30.0006 	-8.80866e-06 	-2.23274e-06 30.0006 	-8.80866e-06 	-2.23274e-06 30.0006 	-8.80865e-06 	-2.23273e-06 30.0006 	-8.80864e-06 	-2.23273e-06 30.0003 	-3.86399e-06 	-5.16475e-06 30.0006 	-8.70435e-06 	-2.12414e-06 30.0006 	-8.70435e-06 	-2.12413e-06 30.0006 	-8.70434e-06 	-2.12413e-06 30.0006 	-8.70433e-06 	-2.12413e-06 30.0003 	-9.14999e-08 	-5.28457e-06 30.0006 	-8.59615e-06 	-2.00507e-06 30.0006 	-8.59614e-06 	-2.00507e-06 30.0006 	-8.59614e-06 	-2.00507e-06 30.0006 	-8.59613e-06 	-2.00507e-06 30.0003 	-3.70436e-06 	-4.7194e-06 30.0007 	-8.48478e-06 	-1.87667e-06 30.0007 	-8.48477e-06 	-1.87667e-06 30.0007 	-8.48476e-06 	-1.87667e-06 30.0007 	-8.48476e-06 	-1.87667e-06 30.0003 	-3.61926e-06 	-4.47431e-06 30.0007 	-8.37143e-06 	-1.73883e-06 30.0007 	-8.37142e-06 	-1.73883e-06 30.0007 	-8.37142e-06 	-1.73883e-06 30.0007 	-8.37141e-06 	-1.73883e-06 30.0004 	-9.6722e-08 	-4.54319e-06 30.0007 	-8.25984e-06 	-1.59803e-06 30.0007 	-8.25983e-06 	-1.59803e-06 30.0007 	-8.25983e-06 	-1.59803e-06 30.0007 	-8.25982e-06 	-1.59803e-06 30.0004 	-9.84603e-08 	-4.27124e-06 30.0007 	-8.14784e-06 	-1.46323e-06 30.0007 	-8.14784e-06 	-1.46323e-06 30.0007 	-8.14784e-06 	-1.46323e-06 30.0007 	-8.14783e-06 	-1.46323e-06 30.0004 	-1.00201e-07 	-3.98927e-06 30.0007 	-8.01979e-06 	-1.32072e-06 30.0007 	-8.01978e-06 	-1.32072e-06 30.0007 	-8.01978e-06 	-1.32072e-06 30.0007 	-8.01977e-06 	-1.32072e-06 30.0004 	-3.25092e-06 	-3.37795e-06 30.0007 	-7.881e-06 	-1.16801e-06 30.0007 	-7.881e-06 	-1.168e-06 30.0007 	-7.88099e-06 	-1.168e-06 30.0007 	-7.88099e-06 	-1.168e-06 30.0004 	-1.03641e-07 	-3.40288e-06 30.0007 	-7.74508e-06 	-1.00788e-06 30.0007 	-7.74508e-06 	-1.00788e-06 30.0007 	-7.74508e-06 	-1.00788e-06 30.0007 	-7.74507e-06 	-1.00788e-06 30.0004 	-1.05359e-07 	-3.10328e-06 30.0007 	-7.61096e-06 	-8.41864e-07 30.0007 	-7.61095e-06 	-8.41864e-07 30.0007 	-7.61095e-06 	-8.41863e-07 30.0007 	-7.61095e-06 	-8.41863e-07 30.0004 	-2.93177e-06 	-2.48789e-06 30.0007 	-7.47519e-06 	-6.70213e-07 30.0007 	-7.47519e-06 	-6.70213e-07 30.0007 	-7.47519e-06 	-6.70213e-07 30.0007 	-7.47519e-06 	-6.70213e-07 30.0004 	-2.8253e-06 	-2.18313e-06 30.0007 	-7.34307e-06 	-4.97061e-07 30.0007 	-7.34307e-06 	-4.97061e-07 30.0007 	-7.34307e-06 	-4.97061e-07 30.0007 	-7.34306e-06 	-4.97061e-07 30.0004 	-1.10464e-07 	-2.17112e-06 30.0007 	-7.21528e-06 	-3.17335e-07 30.0007 	-7.21528e-06 	-3.17335e-07 30.0007 	-7.21528e-06 	-3.17335e-07 30.0007 	-7.21528e-06 	-3.17335e-07 30.0004 	-1.12147e-07 	-1.85338e-06 30.0007 	-7.09855e-06 	-1.3823e-07 30.0007 	-7.09855e-06 	-1.3823e-07 30.0007 	-7.09855e-06 	-1.3823e-07 30.0007 	-7.09855e-06 	-1.3823e-07 30.0004 	-1.13813e-07 	-1.54904e-06 30.0007 	-6.98523e-06 	4.08375e-08 30.0007 	-6.98523e-06 	4.08375e-08 30.0007 	-6.98523e-06 	4.08375e-08 30.0007 	-6.98523e-06 	4.08375e-08 30.0004 	-2.43888e-06 	-9.58513e-07 30.0007 	-6.87164e-06 	2.1465e-07 30.0007 	-6.87164e-06 	2.1465e-07 30.0007 	-6.87165e-06 	2.1465e-07 30.0007 	-6.87165e-06 	2.1465e-07 30.0004 	-2.34728e-06 	-6.82312e-07 30.0007 	-6.75352e-06 	3.907e-07 30.0007 	-6.75352e-06 	3.907e-07 30.0007 	-6.75352e-06 	3.907e-07 30.0007 	-6.75352e-06 	3.907e-07 30.0004 	-1.18803e-07 	-7.09786e-07 30.0007 	-6.64302e-06 	5.64353e-07 30.0007 	-6.64302e-06 	5.64353e-07 30.0007 	-6.64303e-06 	5.64353e-07 30.0007 	-6.64303e-06 	5.64353e-07 30.0004 	-2.16696e-06 	-1.45453e-07 30.0007 	-6.53606e-06 	7.2738e-07 30.0007 	-6.53606e-06 	7.27381e-07 30.0007 	-6.53606e-06 	7.27381e-07 30.0007 	-6.53606e-06 	7.27381e-07 30.0004 	-2.0813e-06 	1.13824e-07 30.0007 	-6.43076e-06 	8.7882e-07 30.0007 	-6.43076e-06 	8.7882e-07 30.0007 	-6.43077e-06 	8.7882e-07 30.0007 	-6.43077e-06 	8.78821e-07 30.0004 	-1.23732e-07 	7.05619e-08 30.0007 	-6.32319e-06 	1.01777e-06 30.0007 	-6.32319e-06 	1.01777e-06 30.0007 	-6.32319e-06 	1.01777e-06 30.0007 	-6.32319e-06 	1.01777e-06 30.0004 	-1.25322e-07 	3.15793e-07 30.0007 	-6.21683e-06 	1.14061e-06 30.0007 	-6.21683e-06 	1.14061e-06 30.0007 	-6.21683e-06 	1.14061e-06 30.0007 	-6.21684e-06 	1.14061e-06 30.0004 	-1.2691e-07 	5.45512e-07 30.0007 	-6.11557e-06 	1.25631e-06 30.0007 	-6.11558e-06 	1.25631e-06 30.0007 	-6.11558e-06 	1.25631e-06 30.0007 	-6.11558e-06 	1.25631e-06 30.0004 	-1.7645e-06 	1.03207e-06 30.0007 	-6.02285e-06 	1.37126e-06 30.0007 	-6.02286e-06 	1.37126e-06 30.0007 	-6.02286e-06 	1.37126e-06 30.0007 	-6.02286e-06 	1.37126e-06 30.0004 	-1.30017e-07 	9.36931e-07 30.0007 	-5.94319e-06 	1.48848e-06 30.0007 	-5.94319e-06 	1.48848e-06 30.0007 	-5.94319e-06 	1.48849e-06 30.0007 	-5.9432e-06 	1.48849e-06 30.0004 	-1.31516e-07 	1.10455e-06 30.0007 	-5.87196e-06 	1.59287e-06 30.0007 	-5.87197e-06 	1.59287e-06 30.0007 	-5.87197e-06 	1.59287e-06 30.0007 	-5.87197e-06 	1.59288e-06 30.0004 	-1.59161e-06 	1.53876e-06 30.0007 	-5.80234e-06 	1.6793e-06 30.0007 	-5.80235e-06 	1.6793e-06 30.0007 	-5.80235e-06 	1.6793e-06 30.0007 	-5.80235e-06 	1.6793e-06 30.0003 	-1.54439e-06 	1.67821e-06 30.0007 	-5.73426e-06 	1.75009e-06 30.0007 	-5.73426e-06 	1.75009e-06 30.0007 	-5.73427e-06 	1.7501e-06 30.0007 	-5.73427e-06 	1.7501e-06 30.0003 	-1.36196e-07 	1.52472e-06 30.0006 	-5.6691e-06 	1.8098e-06 30.0006 	-5.66911e-06 	1.8098e-06 30.0006 	-5.66911e-06 	1.8098e-06 30.0006 	-5.66911e-06 	1.8098e-06 30.0003 	-1.37735e-07 	1.63226e-06 30.0006 	-5.609e-06 	1.85993e-06 30.0006 	-5.60901e-06 	1.85993e-06 30.0006 	-5.60901e-06 	1.85993e-06 30.0006 	-5.60902e-06 	1.85993e-06 30.0003 	-1.39188e-07 	1.72399e-06 30.0006 	-5.55468e-06 	1.90042e-06 30.0006 	-5.55468e-06 	1.90042e-06 30.0006 	-5.55469e-06 	1.90042e-06 30.0006 	-5.55469e-06 	1.90042e-06 30.0003 	-1.38901e-06 	2.07103e-06 30.0006 	-5.50582e-06 	1.93108e-06 30.0006 	-5.50582e-06 	1.93108e-06 30.0006 	-5.50583e-06 	1.93108e-06 30.0006 	-5.50583e-06 	1.93108e-06 30.0003 	-1.36196e-06 	2.13096e-06 30.0006 	-5.46202e-06 	1.95181e-06 30.0006 	-5.46203e-06 	1.95181e-06 30.0006 	-5.46203e-06 	1.95182e-06 30.0006 	-5.46203e-06 	1.95182e-06 30.0003 	-1.4314e-07 	1.90825e-06 30.0006 	-5.42315e-06 	1.96276e-06 30.0006 	-5.42315e-06 	1.96276e-06 30.0006 	-5.42316e-06 	1.96276e-06 30.0006 	-5.42316e-06 	1.96276e-06 30.0003 	-1.32352e-06 	2.20765e-06 30.0006 	-5.38916e-06 	1.96428e-06 30.0006 	-5.38916e-06 	1.96428e-06 30.0006 	-5.38916e-06 	1.96429e-06 30.0006 	-5.38917e-06 	1.96429e-06 30.0003 	-1.31172e-06 	2.22554e-06 30.0006 	-5.35993e-06 	1.95688e-06 30.0006 	-5.35993e-06 	1.95688e-06 30.0006 	-5.35994e-06 	1.95688e-06 30.0006 	-5.35994e-06 	1.95688e-06 30.0003 	-1.46923e-07 	1.96616e-06 30.0005 	-5.33535e-06 	1.94107e-06 30.0005 	-5.33535e-06 	1.94108e-06 30.0005 	-5.33536e-06 	1.94108e-06 30.0005 	-5.33536e-06 	1.94108e-06 30.0003 	-1.48135e-07 	1.96056e-06 30.0005 	-5.31531e-06 	1.91788e-06 30.0005 	-5.31532e-06 	1.91788e-06 30.0005 	-5.31532e-06 	1.91788e-06 30.0005 	-5.31532e-06 	1.91788e-06 30.0003 	-1.49332e-07 	1.94422e-06 30.0005 	-5.29969e-06 	1.88794e-06 30.0005 	-5.29969e-06 	1.88794e-06 30.0005 	-5.29969e-06 	1.88795e-06 30.0005 	-5.2997e-06 	1.88795e-06 30.0003 	-1.30908e-06 	2.17899e-06 30.0005 	-5.28831e-06 	1.85184e-06 30.0005 	-5.28831e-06 	1.85184e-06 30.0005 	-5.28832e-06 	1.85185e-06 30.0005 	-5.28832e-06 	1.85185e-06 30.0003 	-1.51644e-07 	1.88228e-06 30.0005 	-5.28099e-06 	1.81002e-06 30.0005 	-5.28099e-06 	1.81002e-06 30.0005 	-5.28099e-06 	1.81002e-06 30.0005 	-5.281e-06 	1.81002e-06 30.0003 	-1.52746e-07 	1.83816e-06 30.0005 	-5.27751e-06 	1.76309e-06 30.0005 	-5.27751e-06 	1.76309e-06 30.0005 	-5.27751e-06 	1.76309e-06 30.0005 	-5.27752e-06 	1.76309e-06 30.0003 	-1.34826e-06 	2.04407e-06 30.0005 	-5.27764e-06 	1.71155e-06 30.0005 	-5.27765e-06 	1.71155e-06 30.0005 	-5.27765e-06 	1.71155e-06 30.0005 	-5.27765e-06 	1.71155e-06 30.0003 	-1.36831e-06 	1.98423e-06 30.0005 	-5.28115e-06 	1.65591e-06 30.0005 	-5.28116e-06 	1.65592e-06 30.0005 	-5.28116e-06 	1.65592e-06 30.0005 	-5.28116e-06 	1.65592e-06 30.0002 	-1.55909e-07 	1.66278e-06 30.0005 	-5.28792e-06 	1.5966e-06 30.0005 	-5.28792e-06 	1.5966e-06 30.0005 	-5.28792e-06 	1.5966e-06 30.0005 	-5.28792e-06 	1.5966e-06 30.0002 	-1.5695e-07 	1.59254e-06 30.0004 	-5.29784e-06 	1.53407e-06 30.0004 	-5.29785e-06 	1.53408e-06 30.0004 	-5.29785e-06 	1.53408e-06 30.0004 	-5.29785e-06 	1.53408e-06 30.0002 	-1.58018e-07 	1.51767e-06 30.0004 	-5.31077e-06 	1.46881e-06 30.0004 	-5.31077e-06 	1.46881e-06 30.0004 	-5.31077e-06 	1.46881e-06 30.0004 	-5.31077e-06 	1.46881e-06 30.0002 	-1.47994e-06 	1.69061e-06 30.0004 	-5.32628e-06 	1.40135e-06 30.0004 	-5.32629e-06 	1.40135e-06 30.0004 	-5.32629e-06 	1.40135e-06 30.0004 	-5.32629e-06 	1.40135e-06 30.0002 	-1.51445e-06 	1.60712e-06 30.0004 	-5.34414e-06 	1.3321e-06 30.0004 	-5.34414e-06 	1.3321e-06 30.0004 	-5.34414e-06 	1.3321e-06 30.0004 	-5.34415e-06 	1.3321e-06 30.0002 	-1.61229e-07 	1.27184e-06 30.0004 	-5.3641e-06 	1.26139e-06 30.0004 	-5.36411e-06 	1.26139e-06 30.0004 	-5.36411e-06 	1.26139e-06 30.0004 	-5.36411e-06 	1.26139e-06 30.0002 	-1.58976e-06 	1.43249e-06 30.0004 	-5.38591e-06 	1.18972e-06 30.0004 	-5.38591e-06 	1.18972e-06 30.0004 	-5.38592e-06 	1.18972e-06 30.0004 	-5.38592e-06 	1.18972e-06 30.0002 	-1.63025e-06 	1.34241e-06 30.0004 	-5.40951e-06 	1.11739e-06 30.0004 	-5.40951e-06 	1.11739e-06 30.0004 	-5.40951e-06 	1.11739e-06 30.0004 	-5.40951e-06 	1.11739e-06 30.0002 	-1.64225e-07 	1.00606e-06 30.0004 	-5.43461e-06 	1.04471e-06 30.0004 	-5.43461e-06 	1.04471e-06 30.0004 	-5.43462e-06 	1.04471e-06 30.0004 	-5.43462e-06 	1.04471e-06 30.0002 	-1.65165e-07 	9.15587e-07 30.0004 	-5.46024e-06 	9.72178e-07 30.0004 	-5.46024e-06 	9.72178e-07 30.0004 	-5.46024e-06 	9.72178e-07 30.0004 	-5.46025e-06 	9.72179e-07 30.0002 	-1.66064e-07 	8.24964e-07 30.0004 	-5.48627e-06 	8.99397e-07 30.0004 	-5.48627e-06 	8.99397e-07 30.0004 	-5.48627e-06 	8.99397e-07 30.0004 	-5.48627e-06 	8.99398e-07 30.0002 	-1.80712e-06 	9.75418e-07 30.0004 	-5.51303e-06 	8.25869e-07 30.0004 	-5.51303e-06 	8.25869e-07 30.0004 	-5.51304e-06 	8.25869e-07 30.0004 	-5.51304e-06 	8.25869e-07 30.0002 	-1.67757e-07 	6.43597e-07 30.0003 	-5.54277e-06 	7.5191e-07 30.0003 	-5.54277e-06 	7.5191e-07 30.0003 	-5.54277e-06 	7.51911e-07 30.0003 	-5.54277e-06 	7.51911e-07 30.0002 	-1.68589e-07 	5.52602e-07 30.0003 	-5.57724e-06 	6.77368e-07 30.0003 	-5.57724e-06 	6.77368e-07 30.0003 	-5.57724e-06 	6.77368e-07 30.0003 	-5.57724e-06 	6.77369e-07 30.0002 	-1.95548e-06 	7.01312e-07 30.0003 	-5.61408e-06 	6.04298e-07 30.0003 	-5.61408e-06 	6.04298e-07 30.0003 	-5.61408e-06 	6.04298e-07 30.0003 	-5.61408e-06 	6.04298e-07 30.0002 	-2.00766e-06 	6.11683e-07 30.0003 	-5.65017e-06 	5.34593e-07 30.0003 	-5.65018e-06 	5.34593e-07 30.0003 	-5.65018e-06 	5.34593e-07 30.0003 	-5.65018e-06 	5.34593e-07 30.0002 	-1.7107e-07 	2.80906e-07 30.0003 	-5.68127e-06 	4.67575e-07 30.0003 	-5.68127e-06 	4.67575e-07 30.0003 	-5.68127e-06 	4.67575e-07 30.0003 	-5.68128e-06 	4.67575e-07 30.0002 	-1.71897e-07 	1.97293e-07 30.0003 	-5.70968e-06 	4.03134e-07 30.0003 	-5.70968e-06 	4.03134e-07 30.0003 	-5.70968e-06 	4.03134e-07 30.0003 	-5.70968e-06 	4.03134e-07 30.0002 	-1.72692e-07 	1.16363e-07 30.0003 	-5.73785e-06 	3.39169e-07 30.0003 	-5.73785e-06 	3.39169e-07 30.0003 	-5.73785e-06 	3.39169e-07 30.0003 	-5.73785e-06 	3.39169e-07 30.0002 	-2.20092e-06 	2.74085e-07 30.0003 	-5.76581e-06 	2.75202e-07 30.0003 	-5.76581e-06 	2.75202e-07 30.0003 	-5.76581e-06 	2.75202e-07 30.0003 	-5.76581e-06 	2.75202e-07 30.0002 	-2.24784e-06 	1.96344e-07 30.0003 	-5.7926e-06 	2.10724e-07 30.0003 	-5.7926e-06 	2.10724e-07 30.0003 	-5.7926e-06 	2.10724e-07 30.0003 	-5.7926e-06 	2.10724e-07 30.0002 	-1.74867e-07 	-1.09179e-07 30.0003 	-5.8206e-06 	1.48726e-07 30.0003 	-5.8206e-06 	1.48726e-07 30.0003 	-5.82061e-06 	1.48726e-07 30.0003 	-5.82061e-06 	1.48726e-07 30.0002 	-2.34162e-06 	4.46601e-08 30.0003 	-5.84986e-06 	8.99309e-08 30.0003 	-5.84986e-06 	8.99309e-08 30.0003 	-5.84986e-06 	8.99309e-08 30.0003 	-5.84986e-06 	8.99309e-08 30.0002 	-2.38892e-06 	-2.9112e-08 30.0003 	-5.88027e-06 	3.47624e-08 30.0003 	-5.88027e-06 	3.47624e-08 30.0003 	-5.88027e-06 	3.47624e-08 30.0003 	-5.88027e-06 	3.47624e-08 30.0002 	-1.76873e-07 	-3.30802e-07 30.0003 	-5.91208e-06 	-1.71129e-08 30.0003 	-5.91208e-06 	-1.71129e-08 30.0003 	-5.91208e-06 	-1.71129e-08 30.0003 	-5.91208e-06 	-1.71129e-08 30.0002 	-1.77507e-07 	-4.01835e-07 30.0003 	-5.94518e-06 	-6.9089e-08 30.0003 	-5.94518e-06 	-6.9089e-08 30.0003 	-5.94518e-06 	-6.9089e-08 30.0003 	-5.94518e-06 	-6.9089e-08 30.0002 	-1.78107e-07 	-4.67107e-07 30.0003 	-5.97713e-06 	-1.23354e-07 30.0003 	-5.97713e-06 	-1.23354e-07 30.0003 	-5.97713e-06 	-1.23354e-07 30.0003 	-5.97713e-06 	-1.23354e-07 30.0002 	-2.58044e-06 	-3.01388e-07 30.0003 	-6.0049e-06 	-1.77994e-07 30.0003 	-6.0049e-06 	-1.77994e-07 30.0003 	-6.0049e-06 	-1.77994e-07 30.0003 	-6.00489e-06 	-1.77994e-07 30.0002 	-1.79283e-07 	-5.84915e-07 30.0003 	-6.02904e-06 	-2.29248e-07 30.0003 	-6.02904e-06 	-2.29248e-07 30.0003 	-6.02904e-06 	-2.29248e-07 30.0003 	-6.02904e-06 	-2.29248e-07 30.0002 	-1.79887e-07 	-6.42176e-07 30.0003 	-6.05227e-06 	-2.7621e-07 30.0003 	-6.05227e-06 	-2.7621e-07 30.0003 	-6.05227e-06 	-2.7621e-07 30.0003 	-6.05226e-06 	-2.7621e-07 30.0002 	-2.70848e-06 	-4.7899e-07 30.0003 	-6.07611e-06 	-3.19695e-07 30.0003 	-6.07611e-06 	-3.19695e-07 30.0003 	-6.07611e-06 	-3.19695e-07 30.0003 	-6.07611e-06 	-3.19695e-07 30.0002 	-2.74951e-06 	-5.34032e-07 30.0003 	-6.10041e-06 	-3.61218e-07 30.0003 	-6.10041e-06 	-3.61218e-07 30.0003 	-6.1004e-06 	-3.61218e-07 30.0003 	-6.1004e-06 	-3.61218e-07 30.0002 	-1.81615e-07 	-8.03811e-07 30.0003 	-6.12443e-06 	-4.01413e-07 30.0003 	-6.12443e-06 	-4.01413e-07 30.0003 	-6.12443e-06 	-4.01413e-07 30.0003 	-6.12443e-06 	-4.01412e-07 30.0001 	-1.82153e-07 	-8.53129e-07 30.0003 	-6.1478e-06 	-4.40406e-07 30.0003 	-6.1478e-06 	-4.40406e-07 30.0003 	-6.1478e-06 	-4.40406e-07 30.0003 	-6.1478e-06 	-4.40406e-07 30.0001 	-1.82675e-07 	-9.00337e-07 30.0003 	-6.17044e-06 	-4.78032e-07 30.0003 	-6.17044e-06 	-4.78032e-07 30.0003 	-6.17044e-06 	-4.78032e-07 30.0003 	-6.17043e-06 	-4.78032e-07 30.0001 	-2.90898e-06 	-7.31463e-07 30.0003 	-6.19221e-06 	-5.14248e-07 30.0003 	-6.19221e-06 	-5.14248e-07 30.0003 	-6.19221e-06 	-5.14248e-07 30.0003 	-6.1922e-06 	-5.14248e-07 30.0001 	-2.94685e-06 	-7.75588e-07 30.0003 	-6.21318e-06 	-5.48865e-07 30.0003 	-6.21317e-06 	-5.48865e-07 30.0003 	-6.21317e-06 	-5.48865e-07 30.0003 	-6.21317e-06 	-5.48865e-07 30.0001 	-1.84179e-07 	-1.02954e-06 30.0003 	-6.23328e-06 	-5.82078e-07 30.0003 	-6.23328e-06 	-5.82078e-07 30.0003 	-6.23328e-06 	-5.82078e-07 30.0003 	-6.23328e-06 	-5.82078e-07 30.0001 	-3.01984e-06 	-8.57477e-07 30.0003 	-6.25253e-06 	-6.13924e-07 30.0003 	-6.25253e-06 	-6.13923e-07 30.0003 	-6.25253e-06 	-6.13923e-07 30.0003 	-6.25253e-06 	-6.13923e-07 30.0001 	-3.05493e-06 	-8.95483e-07 30.0003 	-6.27102e-06 	-6.44449e-07 30.0003 	-6.27102e-06 	-6.44449e-07 30.0003 	-6.27101e-06 	-6.44449e-07 30.0003 	-6.27101e-06 	-6.44449e-07 30.0001 	-1.85591e-07 	-1.14086e-06 30.0003 	-6.28883e-06 	-6.73652e-07 30.0003 	-6.28882e-06 	-6.73652e-07 30.0003 	-6.28882e-06 	-6.73652e-07 30.0003 	-6.28882e-06 	-6.73652e-07 30.0001 	-1.86051e-07 	-1.17461e-06 30.0003 	-6.30583e-06 	-7.01471e-07 30.0003 	-6.30582e-06 	-7.0147e-07 30.0003 	-6.30582e-06 	-7.0147e-07 30.0003 	-6.30582e-06 	-7.0147e-07 30.0001 	-1.86495e-07 	-1.2067e-06 30.0003 	-6.3219e-06 	-7.27908e-07 30.0003 	-6.3219e-06 	-7.27907e-07 30.0003 	-6.32189e-06 	-7.27907e-07 30.0003 	-6.32189e-06 	-7.27907e-07 30.0001 	-3.18638e-06 	-1.03101e-06 30.0003 	-6.33715e-06 	-7.53017e-07 30.0003 	-6.33715e-06 	-7.53016e-07 30.0003 	-6.33715e-06 	-7.53016e-07 30.0003 	-6.33715e-06 	-7.53016e-07 30.0001 	-1.87354e-07 	-1.26598e-06 30.0003 	-6.35168e-06 	-7.76985e-07 30.0003 	-6.35168e-06 	-7.76985e-07 30.0003 	-6.35168e-06 	-7.76984e-07 30.0003 	-6.35167e-06 	-7.76984e-07 30.0001 	-1.87776e-07 	-1.29333e-06 30.0003 	-6.36547e-06 	-7.99857e-07 30.0003 	-6.36547e-06 	-7.99857e-07 30.0003 	-6.36547e-06 	-7.99856e-07 30.0003 	-6.36547e-06 	-7.99856e-07 30.0001 	-3.27577e-06 	-1.11606e-06 30.0003 	-6.37854e-06 	-8.2159e-07 30.0003 	-6.37853e-06 	-8.2159e-07 30.0003 	-6.37853e-06 	-8.2159e-07 30.0003 	-6.37853e-06 	-8.2159e-07 30.0001 	-3.30389e-06 	-1.14153e-06 30.0003 	-6.39089e-06 	-8.42023e-07 30.0003 	-6.39089e-06 	-8.42023e-07 30.0003 	-6.39089e-06 	-8.42023e-07 30.0003 	-6.39088e-06 	-8.42023e-07 30.0001 	-1.88972e-07 	-1.36688e-06 30.0003 	-6.40252e-06 	-8.61419e-07 30.0003 	-6.40252e-06 	-8.61419e-07 30.0003 	-6.40251e-06 	-8.61419e-07 30.0003 	-6.40251e-06 	-8.61418e-07 30.0001 	-1.89357e-07 	-1.38875e-06 30.0003 	-6.41344e-06 	-8.79859e-07 30.0003 	-6.41344e-06 	-8.79858e-07 30.0003 	-6.41344e-06 	-8.79858e-07 30.0003 	-6.41343e-06 	-8.79858e-07 30.0001 	-1.89734e-07 	-1.4094e-06 30.0003 	-6.42368e-06 	-8.97348e-07 30.0003 	-6.42367e-06 	-8.97348e-07 30.0003 	-6.42367e-06 	-8.97348e-07 30.0003 	-6.42367e-06 	-8.97348e-07 30.0001 	-3.40822e-06 	-1.23053e-06 30.0003 	-6.43324e-06 	-9.13935e-07 30.0003 	-6.43324e-06 	-9.13935e-07 30.0003 	-6.43324e-06 	-9.13935e-07 30.0003 	-6.43323e-06 	-9.13934e-07 30.0001 	-3.43236e-06 	-1.24986e-06 30.0003 	-6.44221e-06 	-9.2962e-07 30.0003 	-6.44221e-06 	-9.2962e-07 30.0003 	-6.44221e-06 	-9.2962e-07 30.0003 	-6.4422e-06 	-9.29619e-07 30.0001 	-1.90857e-07 	-1.46457e-06 30.0003 	-6.45053e-06 	-9.4447e-07 30.0003 	-6.45053e-06 	-9.4447e-07 30.0003 	-6.45053e-06 	-9.4447e-07 30.0003 	-6.45052e-06 	-9.44469e-07 30.0001 	-3.47848e-06 	-1.28535e-06 30.0003 	-6.45821e-06 	-9.5848e-07 30.0003 	-6.45821e-06 	-9.58479e-07 30.0003 	-6.45821e-06 	-9.58479e-07 30.0003 	-6.4582e-06 	-9.58479e-07 30.0001 	-3.50054e-06 	-1.30161e-06 30.0003 	-6.4653e-06 	-9.71771e-07 30.0003 	-6.4653e-06 	-9.71771e-07 30.0003 	-6.4653e-06 	-9.71771e-07 30.0003 	-6.4653e-06 	-9.7177e-07 30.0001 	-