# vtk DataFile Version 2.0
track0
ASCII
DATASET POLYDATA
POINTS 15805 float
-1.001 -0.05 0.0011
-1.0008 -0.05 0.0011
-1.0006 -0.05 0.0011
-1.0004 -0.05 0.00109999
-1.0002 -0.05 0.00109999
-1 -0.05 0.00109999
-0.9875 -0.0500002 0.00109986
-0.975 -0.0500004 0.00109981
-0.9625 -0.0500007 0.00109977
-0.95 -0.050001 0.00109972
-0.9375 -0.0500013 0.00109968
-0.925 -0.0500013 0.00109955
-0.9125 -0.0500016 0.0010995
-0.9 -0.0500018 0.00109944
-0.8875 -0.0500021 0.00109939
-0.875 -0.0500023 0.00109933
-0.8625 -0.0500023 0.0010992
-0.85 -0.0500026 0.00109914
-0.8375 -0.0500028 0.00109908
-0.825 -0.0500031 0.00109901
-0.8125 -0.0500033 0.00109895
-0.8 -0.0500034 0.00109882
-0.7875 -0.0500037 0.00109875
-0.775 -0.0500039 0.00109867
-0.7625 -0.0500041 0.0010986
-0.75 -0.0500044 0.00109853
-0.7375 -0.0500044 0.00109839
-0.725 -0.0500047 0.00109831
-0.7125 -0.0500049 0.00109823
-0.7 -0.0500051 0.00109815
-0.6875 -0.0500054 0.00109807
-0.675 -0.0500054 0.00109793
-0.6625 -0.0500056 0.00109784
-0.65 -0.0500059 0.00109776
-0.6375 -0.0500061 0.00109767
-0.625 -0.0500064 0.00109759
-0.6125 -0.0500065 0.00109745
-0.6 -0.0500067 0.00109736
-0.5875 -0.050007 0.00109727
-0.575 -0.0500072 0.00109718
-0.5625 -0.0500075 0.00109709
-0.55 -0.0500076 0.00109694
-0.5375 -0.0500078 0.00109685
-0.525 -0.0500081 0.00109676
-0.5125 -0.0500083 0.00109666
-0.5 -0.0500086 0.00109657
-0.4875 -0.0500086 0.00109641
-0.475 -0.0500088 0.00109632
-0.4625 -0.050009 0.00109622
-0.45 -0.0500093 0.00109612
-0.4375 -0.0500095 0.00109603
-0.425 -0.0500095 0.00109586
-0.4125 -0.0500098 0.00109576
-0.4 -0.05001 0.00109566
-0.3875 -0.0500102 0.00109556
-0.375 -0.0500105 0.00109546
-0.3625 -0.0500105 0.00109529
-0.35 -0.0500107 0.00109519
-0.3375 -0.0500109 0.00109508
-0.325 -0.0500112 0.00109498
-0.3125 -0.0500114 0.00109488
-0.3 -0.0500115 0.00109471
-0.2875 -0.0500118 0.0010946
-0.275 -0.050012 0.00109449
-0.2625 -0.0500122 0.00109439
-0.25 -0.0500124 0.00109428
-0.2375 -0.0500126 0.00109411
-0.225 -0.0500128 0.001094
-0.2125 -0.050013 0.00109389
-0.2 -0.0500133 0.00109377
-0.1875 -0.0500135 0.00109366
-0.175 -0.0500135 0.00109348
-0.1625 -0.0500137 0.00109337
-0.15 -0.050014 0.00109325
-0.1375 -0.0500142 0.00109314
-0.125 -0.0500144 0.00109302
-0.1125 -0.0500145 0.00109285
-0.1 -0.0500147 0.00109273
-0.0875 -0.050015 0.00109261
-0.075 -0.0500152 0.00109249
-0.0625 -0.0500154 0.00109237
-0.05 -0.0500155 0.00109219
-0.0375 -0.0500158 0.00109207
-0.025 -0.050016 0.00109195
-0.0125 -0.0500162 0.00109183
3.2169e-12 -0.0500164 0.0010917
0.0125 -0.0500164 0.00109151
0.025 -0.0500166 0.00109139
0.0375 -0.0500169 0.00109126
0.05 -0.0500171 0.00109114
0.0625 -0.0500173 0.00109102
0.075 -0.0500173 0.00109082
0.0875 -0.0500175 0.00109069
0.1 -0.0500177 0.00109056
0.1125 -0.050018 0.00109044
0.125 -0.0500182 0.00109031
0.1375 -0.0500182 0.00109011
0.15 -0.0500184 0.00108998
0.1625 -0.0500186 0.00108985
0.175 -0.0500188 0.00108972
0.1875 -0.050019 0.00108959
0.2 -0.0500192 0.00108939
0.2125 -0.0500194 0.00108926
0.225 -0.0500196 0.00108912
0.2375 -0.0500198 0.00108899
0.25 -0.05002 0.00108885
0.2625 -0.05002 0.00108865
0.275 -0.0500202 0.00108851
0.2875 -0.0500204 0.00108838
0.3 -0.0500206 0.00108824
0.3125 -0.0500208 0.0010881
0.325 -0.0500208 0.0010879
0.3375 -0.050021 0.00108776
0.35 -0.0500212 0.00108762
0.3625 -0.0500214 0.00108748
0.375 -0.0500216 0.00108734
0.3875 -0.0500218 0.00108714
0.4 -0.050022 0.00108699
0.4125 -0.0500222 0.00108685
0.425 -0.0500224 0.00108671
0.4375 -0.0500226 0.00108657
0.45 -0.0500227 0.00108636
0.4625 -0.0500229 0.00108622
0.475 -0.0500231 0.00108608
0.4875 -0.0500233 0.00108593
0.5 -0.0500235 0.00108579
0.5125 -0.0500235 0.00108558
0.525 -0.0500237 0.00108543
0.5375 -0.0500238 0.00108529
0.55 -0.050024 0.00108514
0.5625 -0.0500242 0.001085
0.575 -0.0500242 0.00108478
0.5875 -0.0500244 0.00108463
0.6 -0.0500246 0.00108449
0.6125 -0.0500248 0.00108434
0.625 -0.050025 0.00108419
0.6375 -0.050025 0.00108398
0.65 -0.0500251 0.00108383
0.6625 -0.0500253 0.00108368
0.675 -0.0500255 0.00108353
0.6875 -0.0500257 0.00108339
0.7 -0.0500258 0.00108317
0.7125 -0.050026 0.00108302
0.725 -0.0500262 0.00108288
0.7375 -0.0500263 0.00108273
0.75 -0.0500265 0.00108258
0.7625 -0.0500266 0.00108236
0.775 -0.0500268 0.00108221
0.7875 -0.050027 0.00108207
0.8 -0.0500272 0.00108192
0.8125 -0.0500273 0.00108177
0.825 -0.0500273 0.00108155
0.8375 -0.0500275 0.0010814
0.85 -0.0500277 0.00108125
0.8625 -0.0500278 0.0010811
0.875 -0.050028 0.00108095
0.8875 -0.0500281 0.00108074
0.9 -0.0500283 0.00108059
0.9125 -0.0500284 0.00108044
0.925 -0.0500286 0.00108029
0.9375 -0.0500287 0.00108014
0.95 -0.0500288 0.00107992
0.9625 -0.050029 0.00107977
0.975 -0.0500291 0.00107963
0.9875 -0.0500293 0.00107948
1 -0.0500294 0.00107933
1.0125 -0.0500294 0.00107911
1.025 -0.0500295 0.00107896
1.0375 -0.0500297 0.00107881
1.05 -0.0500298 0.00107867
1.0625 -0.05003 0.00107852
1.075 -0.0500299 0.0010783
1.0875 -0.0500301 0.00107815
1.1 -0.0500302 0.00107801
1.1125 -0.0500304 0.00107786
1.125 -0.0500305 0.00107771
1.1375 -0.0500305 0.0010775
1.15 -0.0500306 0.00107735
1.1625 -0.0500307 0.00107721
1.175 -0.0500309 0.00107706
1.1875 -0.050031 0.00107692
1.2 -0.0500311 0.00107671
1.2125 -0.0500312 0.00107657
1.225 -0.0500313 0.00107642
1.2375 -0.0500315 0.00107628
1.25 -0.0500316 0.00107614
1.2625 -0.0500315 0.00107593
1.275 -0.0500317 0.00107579
1.2875 -0.0500318 0.00107565
1.3 -0.0500319 0.0010755
1.3125 -0.050032 0.00107536
1.325 -0.050032 0.00107516
1.3375 -0.0500321 0.00107502
1.35 -0.0500322 0.00107488
1.3625 -0.0500323 0.00107474
1.375 -0.0500324 0.0010746
1.3875 -0.0500324 0.0010744
1.4 -0.0500325 0.00107426
1.4125 -0.0500326 0.00107413
1.425 -0.0500327 0.00107399
1.4375 -0.0500328 0.00107385
1.45 -0.0500329 0.00107366
1.4625 -0.050033 0.00107353
1.475 -0.050033 0.00107339
1.4875 -0.0500331 0.00107326
1.5 -0.0500332 0.00107313
1.5125 -0.0500332 0.00107293
1.525 -0.0500332 0.0010728
1.5375 -0.0500333 0.00107267
1.55 -0.0500334 0.00107254
1.5625 -0.0500335 0.00107241
1.575 -0.0500334 0.00107222
1.5875 -0.0500335 0.00107209
1.6 -0.0500335 0.00107197
1.6125 -0.0500336 0.00107184
1.625 -0.0500337 0.00107171
1.6375 -0.0500336 0.00107153
1.65 -0.0500337 0.00107141
1.6625 -0.0500337 0.00107129
1.675 -0.0500338 0.00107116
1.6875 -0.0500339 0.00107104
1.7 -0.0500339 0.00107087
1.7125 -0.0500339 0.00107075
1.725 -0.050034 0.00107063
1.7375 -0.050034 0.00107051
1.75 -0.0500341 0.00107039
1.7625 -0.0500341 0.00107022
1.775 -0.0500342 0.00107011
1.7875 -0.0500342 0.00106999
1.8 -0.0500342 0.00106988
1.8125 -0.0500343 0.00106976
1.825 -0.0500342 0.0010696
1.8375 -0.0500342 0.00106949
1.85 -0.0500342 0.00106938
1.8625 -0.0500342 0.00106927
1.875 -0.0500343 0.00106916
1.8875 -0.0500343 0.001069
1.9 -0.0500343 0.00106889
1.9125 -0.0500343 0.00106879
1.925 -0.0500343 0.00106868
1.9375 -0.0500343 0.00106858
1.95 -0.0500343 0.00106843
1.9625 -0.0500343 0.00106833
1.975 -0.0500343 0.00106823
1.9875 -0.0500343 0.00106813
2 -0.0500343 0.00106803
2.0125 -0.0500342 0.00106788
2.025 -0.0500342 0.00106779
2.0375 -0.0500342 0.00106769
2.05 -0.0500341 0.0010676
2.0625 -0.0500341 0.0010675
2.075 -0.050034 0.00106736
2.0875 -0.050034 0.00106728
2.1 -0.050034 0.00106719
2.1125 -0.0500339 0.0010671
2.125 -0.0500339 0.00106701
2.1375 -0.0500338 0.00106688
2.15 -0.0500338 0.0010668
2.1625 -0.0500337 0.00106672
2.175 -0.0500337 0.00106664
2.1875 -0.0500337 0.00106655
2.2 -0.0500336 0.00106643
2.2125 -0.0500336 0.00106636
2.225 -0.0500335 0.00106628
2.2375 -0.0500335 0.00106621
2.25 -0.0500335 0.00106613
2.2625 -0.0500334 0.00106602
2.275 -0.0500333 0.00106595
2.2875 -0.0500332 0.00106588
2.3 -0.0500331 0.00106581
2.3125 -0.0500331 0.00106574
2.325 -0.050033 0.00106563
2.3375 -0.0500329 0.00106556
2.35 -0.0500328 0.0010655
2.3625 -0.0500327 0.00106543
2.375 -0.0500326 0.00106537
2.3875 -0.0500326 0.00106527
2.4 -0.0500325 0.00106521
2.4125 -0.0500324 0.00106515
2.425 -0.0500323 0.00106509
2.4375 -0.0500322 0.00106503
2.45 -0.0500321 0.00106495
2.4625 -0.050032 0.00106489
2.475 -0.0500319 0.00106484
2.4875 -0.0500318 0.00106478
2.5 -0.0500317 0.00106473
2.5125 -0.0500315 0.00106465
2.525 -0.0500314 0.0010646
2.5375 -0.0500313 0.00106455
2.55 -0.0500311 0.0010645
2.5625 -0.050031 0.00106445
2.575 -0.0500309 0.00106438
2.5875 -0.0500307 0.00106433
2.6 -0.0500306 0.00106429
2.6125 -0.0500304 0.00106425
2.625 -0.0500303 0.0010642
2.6375 -0.0500302 0.00106414
2.65 -0.05003 0.0010641
2.6625 -0.0500298 0.00106406
2.675 -0.0500297 0.00106402
2.6875 -0.0500295 0.00106398
2.7 -0.0500294 0.00106393
2.7125 -0.0500293 0.00106389
2.725 -0.0500291 0.00106386
2.7375 -0.0500289 0.00106383
2.75 -0.0500287 0.0010638
2.7625 -0.0500286 0.00106375
2.775 -0.0500284 0.00106372
2.7875 -0.0500282 0.00106369
2.8 -0.0500281 0.00106367
2.8125 -0.0500279 0.00106364
2.825 -0.0500277 0.0010636
2.8375 -0.0500275 0.00106357
2.85 -0.0500273 0.00106355
2.8625 -0.0500271 0.00106353
2.875 -0.0500268 0.00106351
2.8875 -0.0500267 0.00106347
2.9 -0.0500265 0.00106346
2.9125 -0.0500262 0.00106344
2.925 -0.050026 0.00106342
2.9375 -0.0500258 0.0010634
2.95 -0.0500256 0.00106338
2.9625 -0.0500253 0.00106337
2.975 -0.0500251 0.00106335
2.9875 -0.0500248 0.00106334
3 -0.0500246 0.00106333
3.0125 -0.0500244 0.00106331
3.025 -0.0500241 0.0010633
3.0375 -0.0500239 0.0010633
3.05 -0.0500236 0.00106329
3.0625 -0.0500234 0.00106328
3.075 -0.0500232 0.00106327
3.0875 -0.0500229 0.00106327
3.1 -0.0500226 0.00106326
3.1125 -0.0500223 0.00106326
3.125 -0.0500221 0.00106326
3.1375 -0.0500219 0.00106326
3.15 -0.0500216 0.00106326
3.1625 -0.0500213 0.00106326
3.175 -0.050021 0.00106326
3.1875 -0.0500207 0.00106327
3.2 -0.0500205 0.00106327
3.2125 -0.0500202 0.00106328
3.225 -0.0500199 0.00106329
3.2375 -0.0500196 0.0010633
3.25 -0.0500193 0.0010633
3.2625 -0.0500191 0.00106331
3.275 -0.0500187 0.00106333
3.2875 -0.0500184 0.00106334
3.3 -0.0500181 0.00106335
3.3125 -0.0500177 0.00106336
3.325 -0.0500175 0.00106338
3.3375 -0.0500172 0.0010634
3.35 -0.0500168 0.00106341
[...]
POINT_DATA 15805
 FIELD attributes 2
p 1 15805 float
4.04335 4.04304 4.04273 4.04242 4.04211 4.04179 4.02389 4.00614 3.98839 3.97064 3.9511 3.93076 3.91023 3.8897 3.86917 3.84943 3.8298 3.81027 3.79075 3.77123 3.75245 3.73305 3.71331 3.69357 3.67383 3.65397 3.63321 3.61223 3.59125 3.57026 3.5491 3.52704 3.50472 3.48239 3.46007 3.43754 3.41428 3.3908 3.36732 3.34384 3.3202 3.29591 3.27137 3.24682 3.22228 3.19753 3.17217 3.14661 3.12105 3.09548 3.06973 3.04337 3.01681 2.99025 2.96369 2.93692 2.90958 2.88204 2.85449 2.82695 2.7992 2.7709 2.74239 2.71388 2.68537 2.65665 2.62741 2.59797 2.56853 2.53909 2.50945 2.47931 2.44898 2.41865 2.38833 2.3578 2.32679 2.29558 2.26438 2.23318 2.20177 2.16986 2.13776 2.10565 2.07355 2.04125 2.00841 1.97537 1.94232 1.90927 1.87601 1.84219 1.80816 1.77413 1.7401 1.70586 1.67106 1.63605 1.60104 1.56603 1.53081 1.49504 1.45907 1.4231 1.38713 1.35095 1.31426 1.27737 1.24048 1.20359 1.16652 1.12895 1.09119 1.05343 1.01567 0.977729 0.939324 0.900743 0.862163 0.823582 0.784825 0.745649 0.706302 0.666955 0.627608 0.588094 0.548208 0.508163 0.468117 0.428072 0.38787 0.347362 0.306713 0.266063 0.225414 0.184618 0.143593 0.102438 0.0612822 0.0201269 -0.0211692 -0.0626369 -0.104214 -0.145791 -0.187368 -0.229067 -0.270877 -0.312795 -0.354712 -0.396629 -0.438669 -0.480755 -0.522913 -0.565071 -0.607229 -0.64948 -0.691694 -0.733972 -0.776249 -0.818526 -0.860891 -0.903131 -0.945416 -0.987702 -1.02999 -1.07233 -1.1145 -1.15673 -1.19896 -1.24118 -1.28347 -1.32556 -1.3677 -1.40984 -1.45198 -1.49418 -1.53614 -1.57814 -1.62015 -1.66215 -1.70421 -1.74599 -1.7878 -1.8296 -1.8714 -1.91323 -1.95473 -1.99623 -2.03773 -2.07924 -2.12076 -2.16186 -2.20296 -2.24405 -2.28515 -2.32624 -2.36685 -2.40744 -2.44803 -2.48862 -2.52919 -2.56923 -2.60924 -2.64925 -2.68926 -2.72923 -2.76861 -2.80794 -2.84727 -2.8866 -2.92588 -2.96448 -3.003 -3.04152 -3.08005 -3.1185 -3.1562 -3.19381 -3.23143 -3.26905 -3.30659 -3.34334 -3.37997 -3.41661 -3.45325 -3.48979 -3.52548 -3.56104 -3.59661 -3.63218 -3.66765 -3.70218 -3.73655 -3.77093 -3.8053 -3.83954 -3.87276 -3.90583 -3.93891 -3.97198 -4.00492 -4.0368 -4.06852 -4.10025 -4.13197 -4.16355 -4.19399 -4.22427 -4.25455 -4.28483 -4.31495 -4.34381 -4.37249 -4.40117 -4.42985 -4.45836 -4.48562 -4.51274 -4.53985 -4.56697 -4.59394 -4.61981 -4.64552 -4.67124 -4.69695 -4.72252 -4.74702 -4.77136 -4.7957 -4.82003 -4.8442 -4.86727 -4.89013 -4.913 -4.93586 -4.95853 -4.98006 -5.00139 -5.02272 -5.04405 -5.06519 -5.08518 -5.10497 -5.12476 -5.14456 -5.16415 -5.18259 -5.20081 -5.21903 -5.23726 -5.25527 -5.2721 -5.2887 -5.30529 -5.32188 -5.33825 -5.35341 -5.36834 -5.38328 -5.39821 -5.41293 -5.42647 -5.43977 -5.45308 -5.46638 -5.47946 -5.4914 -5.50313 -5.51486 -5.52658 -5.5381 -5.54848 -5.55862 -5.56875 -5.57888 -5.58879 -5.5975 -5.60596 -5.61443 -5.62289 -5.63114 -5.63819 -5.64498 -5.65177 -5.65856 -5.66512 -5.67051 -5.67567 -5.68083 -5.68599 -5.69094 -5.69474 -5.6983 -5.70186 -5.70543 -5.70878 -5.71101 -5.71303 -5.71506 -5.71709 -5.71894 -5.71972 -5.72028 -5.72085 -5.72141 -5.72179 -5.72115 -5.72031 -5.71947 -5.71863 -5.71762 -5.71561 -5.71341 -5.7112 -5.70899 -5.7066 -5.70326 -5.69975 -5.69624 -5.69273 -5.68905 -5.68448 -5.67975 -5.67502 -5.6703 -5.66541 -5.65968 -5.65378 -5.64789 -5.642 -5.63595 -5.62908 -5.62204 -5.615 -5.60796 -5.60076 -5.59275 -5.58458 -5.57642 -5.56826 -5.55994 -5.55086 -5.54163 -5.53239 -5.52316 -5.51378 -5.50373 -5.49355 -5.48338 -5.4732 -5.46292 -5.45201 -5.44095 -5.42989 -5.41883 -5.40764 -5.39582 -5.38386 -5.3719 -5.35994 -5.34789 -5.33524 -5.32244 -5.30964 -5.29684 -5.28393 -5.27049 -5.25693 -5.24338 -5.22982 -5.21617 -5.20207 -5.18787 -5.17366 -5.15946 -5.14518 -5.1305 -5.11574 -5.10098 -5.08622 -5.07138 -5.05615 -5.04081 -5.02546 -5.01011 -4.99466 -4.97883 -4.96291 -4.94699 -4.93106 -4.91507 -4.89872 -4.88227 -4.86582 -4.84936 -4.83281 -4.81599 -4.79909 -4.78219 -4.7653 -4.74834 -4.7312 -4.71397 -4.69674 -4.67951 -4.66222 -4.64476 -4.62721 -4.60966 -4.59211 -4.57452 -4.55675 -4.53888 -4.521 -4.50313 -4.48519 -4.4671 -4.44895 -4.4308 -4.41266 -4.39447 -4.37621 -4.35787 -4.33953 -4.3212 -4.30283 -4.28445 -4.26605 -4.24764 -4.22924 -4.21085 -4.19249 -4.1741 -4.15571 -4.13731 -4.11891 -4.10057 -4.08224 -4.0639 -4.04556 -4.02725 -4.00908 -3.99092 -3.97275 -3.95459 -3.93645 -3.91853 -3.90061 -3.8827 -3.86478 -3.84691 -3.82921 -3.81152 -3.79383 -3.77615 -3.75847 -3.74095 -3.72342 -3.7059 -3.68837 -3.67083 -3.65344 -3.63608 -3.61871 -3.60135 -3.58401 -3.56684 -3.54968 -3.53252 -3.51536 -3.49825 -3.48127 -3.46423 -3.44719 -3.43015 -3.4131 -3.39615 -3.37918 -3.36221 -3.34525 -3.3283 -3.31151 -3.2947 -3.27789 -3.26109 -3.2443 -3.22771 -3.21112 -3.19454 -3.17795 -3.1614 -3.14504 -3.12867 -3.1123 -3.09593 -3.07956 -3.06339 -3.04721 -3.03103 -3.01485 -2.99867 -2.9827 -2.96672 -2.95074 -2.93476 -2.91879 -2.90304 -2.88731 -2.87157 -2.85584 -2.84014 -2.8247 -2.80928 -2.79387 -2.77845 -2.76308 -2.748 -2.73297 -2.71794 -2.70291 -2.68792 -2.67328 -2.65871 -2.64414 -2.62956 -2.61505 -2.60089 -2.58677 -2.57265 -2.55853 -2.54443 -2.53066 -2.51699 -2.50333 -2.48966 -2.47608 -2.46281 -2.44961 -2.4364 -2.4232 -2.41005 -2.3972 -2.38434 -2.37147 -2.35861 -2.3458 -2.33319 -2.32057 -2.30795 -2.29533 -2.2828 -2.27043 -2.25803 -2.24564 -2.23324 -2.22087 -2.2087 -2.19656 -2.18442 -2.17228 -2.16017 -2.14828 -2.13645 -2.12461 -2.11277 -2.10099 -2.08941 -2.07783 -2.06625 -2.05467 -2.04311 -2.03172 -2.02036 -2.00899 -1.99762 -1.98626 -1.97512 -1.96399 -1.95286 -1.94173 -1.93059 -1.91968 -1.90878 -1.89789 -1.887 -1.87613 -1.86544 -1.85476 -1.84407 -1.83339 -1.82273 -1.81224 -1.80178 -1.79131 -1.78085 -1.77043 -1.76021 -1.75003 -1.73985 -1.72967 -1.71954 -1.70964 -1.69975 -1.68986 -1.67997 -1.6701 -1.66049 -1.65088 -1.64128 -1.63168 -1.62209 -1.61275 -1.60351 -1.59427 -1.58503 -1.57586 -1.56695 -1.55811 -1.54926 -1.54041 -1.53158 -1.52296 -1.51438 -1.5058 -1.49721 -1.48866 -1.48026 -1.47187 -1.46348 -1.45509 -1.44674 -1.43852 -1.43036 -1.42219 -1.41402 -1.40588 -1.39789 -1.38993 -1.38197 -1.374 -1.36605 -1.35824 -1.35045 -1.34267 -1.33488 -1.32713 -1.31949 -1.31183 -1.30418 -1.29652 -1.28887 -1.28131 -1.27377 -1.26623 -1.25869 -1.25115 -1.24376 -1.23637 -1.22898 -1.22158 -1.21415 -1.20689 -1.19963 -1.19236 -1.1851 -1.17782 -1.17067 -1.16351 -1.15634 -1.14918 -1.14202 -1.13513 -1.12828 -1.12142 -1.11457 -1.10778 -1.10182 -1.09604 -1.09027 -1.0845 -1.07881 -1.07262 -1.06664 -1.06068 -1.05473 -1.048 -1.03259 -1.01662 -1.00019 -0.985552 -0.9714 -0.95983 -0.948266 -0.936701 -0.926386 -0.916231 -0.894856 -0.873801 -0.852745 -0.830453 -0.810086 -0.791731 -0.773111 -0.75449 -0.735869 -0.717433 -0.69972 -0.682061 -0.664401 -0.646742 -0.63125 -0.599271 -0.567615 -0.535959 -0.504303 -0.473475 -0.448725 -0.424229 -0.399733 -0.375237 -0.352609 -0.319848 -0.287395 -0.254942 -0.222489 -0.190109 -0.170894 -0.151694 -0.132494 -0.113294 -0.0931242 -0.0808282 -0.0684953 -0.0561624 -0.0438294 -0.030632 -0.0248506 -0.0189921 -0.0131337 -0.00727523 -0.00100407 -0.000401163 0.000299524 0.00100085 0.00170283 0.00266812
4.03015 4.02979 4.02944 4.02908 4.02873 4.02837 4.01354 3.99668 3.98181 3.96736 3.94869 3.92788 3.90866 3.88925 3.86891 3.85066 3.83107 3.81154 3.79236 3.77327 3.75491 3.7352 3.71541 3.69562 3.67583 3.6561 3.6352 3.61417 3.5931 3.57202 3.55088 3.52852 3.50615 3.48379 3.46144 3.43913 3.41556 3.39207 3.36858 3.34509 3.32173 3.29705 3.2725 3.24795 3.2234 3.19902 3.17324 3.14767 3.12207 3.09647 3.07108 3.04431 3.01771 2.99111 2.96454 2.93816 2.91039 2.88284 2.85526 2.82768 2.80031 2.77159 2.74304 2.7145 2.68598 2.65766 2.62795 2.5985 2.56902 2.53955 2.51032 2.47972 2.44936 2.41901 2.38868 2.35859 2.32712 2.29591 2.26469 2.23346 2.20249 2.17014 2.13801 2.10589 2.07378 2.0419 2.00865 1.9756 1.94252 1.90945 1.87657 1.84235 1.80828 1.77422 1.74019 1.7063 1.6711 1.63608 1.60103 1.56597 1.53109 1.49493 1.4589 1.42288 1.38691 1.35107 1.31398 1.27708 1.24015 1.2032 1.16645 1.12849 1.09067 1.05287 1.0151 0.977479 0.938692 0.900102 0.861468 0.822823 0.784374 0.744822 0.705399 0.66599 0.626633 0.587416 0.547157 0.507102 0.466996 0.426874 0.38696 0.346073 0.30535 0.264642 0.223984 0.183487 0.142078 0.100913 0.0596949 0.0184615 -0.0225461 -0.0643756 -0.106034 -0.147676 -0.189263 -0.23068 -0.272858 -0.314784 -0.356766 -0.398766 -0.440532 -0.482968 -0.525212 -0.567437 -0.609606 -0.651593 -0.694183 -0.736473 -0.778821 -0.821188 -0.863278 -0.905879 -0.948252 -0.990606 -1.0329 -1.07498 -1.11749 -1.15972 -1.20201 -1.24432 -1.28636 -1.32873 -1.37095 -1.41315 -1.45529 -1.49728 -1.53951 -1.58152 -1.62359 -1.66568 -1.70758 -1.74958 -1.79147 -1.83334 -1.87515 -1.91684 -1.95854 -2.00005 -2.04162 -2.08321 -2.12461 -2.1659 -2.20709 -2.24825 -2.28935 -2.33035 -2.37114 -2.41173 -2.45239 -2.49307 -2.53354 -2.57371 -2.6138 -2.65387 -2.69389 -2.73383 -2.77335 -2.81268 -2.85207 -2.89148 -2.9307 -2.96941 -3.00799 -3.04655 -3.08508 -3.12348 -3.16127 -3.19889 -3.23655 -3.27422 -3.31173 -3.34853 -3.38522 -3.42188 -3.45852 -3.49504 -3.53077 -3.56633 -3.60192 -3.63752 -3.67298 -3.70757 -3.74197 -3.77637 -3.81074 -3.84496 -3.87825 -3.91133 -3.94443 -3.97753 -4.01044 -4.04237 -4.07411 -4.10585 -4.13759 -4.16913 -4.19976 -4.23006 -4.26035 -4.29064 -4.32061 -4.34971 -4.37842 -4.40712 -4.43579 -4.46408 -4.49138 -4.51847 -4.54561 -4.57278 -4.59975 -4.62547 -4.65123 -4.67697 -4.70266 -4.72839 -4.75267 -4.77698 -4.80133 -4.82569 -4.85009 -4.87292 -4.89579 -4.91866 -4.94152 -4.96443 -4.98568 -5.00699 -5.02832 -5.04965 -5.07104 -5.09071 -5.1105 -5.13028 -5.15006 -5.16997 -5.18809 -5.2063 -5.22452 -5.24273 -5.26105 -5.27756 -5.29412 -5.3107 -5.32728 -5.34395 -5.35877 -5.3737 -5.38861 -5.40351 -5.41854 -5.43171 -5.44497 -5.45825 -5.47154 -5.48495 -5.49649 -5.5082 -5.51988 -5.53155 -5.54341 -5.5534 -5.56347 -5.57356 -5.58368 -5.59391 -5.60234 -5.61081 -5.61923 -5.62763 -5.6361 -5.64287 -5.6496 -5.65635 -5.66314 -5.66992 -5.67506 -5.68021 -5.68533 -5.69043 -5.69557 -5.69908 -5.70259 -5.70611 -5.70966 -5.71323 -5.71517 -5.71719 -5.71918 -5.72115 -5.72323 -5.72368 -5.72418 -5.7247 -5.72525 -5.72588 -5.72494 -5.72409 -5.7232 -5.72228 -5.7215 -5.71919 -5.7169 -5.71463 -5.71242 -5.71023 -5.70661 -5.70309 -5.69953 -5.69595 -5.69249 -5.68761 -5.68282 -5.67805 -5.67331 -5.66864 -5.66263 -5.65672 -5.65078 -5.64482 -5.63898 -5.63184 -5.62473 -5.61764 -5.61059 -5.60357 -5.59535 -5.58718 -5.57896 -5.57073 -5.56256 -5.55322 -5.54392 -5.53463 -5.52538 -5.51617 -5.50584 -5.49565 -5.48541 -5.47516 -5.46507 -5.45393 -5.4428 -5.43168 -5.42061 -5.40959 -5.3976 -5.38564 -5.37364 -5.36162 -5.34967 -5.33681 -5.32395 -5.3111 -5.29829 -5.2855 -5.27188 -5.25831 -5.24469 -5.23106 -5.21749 -5.20315 -5.18887 -5.17461 -5.1604 -5.14626 -5.13141 -5.11664 -5.10183 -5.087 -5.07229 -5.0569 -5.04149 -5.0261 -5.01075 -4.99538 -4.97941 -4.96348 -4.94751 -4.93153 -4.9156 -4.89914 -4.88263 -4.86613 -4.84967 -4.83317 -4.81622 -4.79931 -4.78237 -4.76543 -4.74854 -4.73124 -4.71395 -4.69668 -4.67945 -4.66226 -4.64471 -4.62715 -4.60956 -4.59195 -4.57438 -4.55653 -4.5386 -4.52068 -4.5028 -4.48488 -4.46674 -4.44858 -4.4304 -4.4122 -4.39402 -4.37565 -4.35727 -4.3389 -4.32056 -4.30224 -4.28377 -4.26536 -4.24692 -4.22847 -4.21013 -4.19166 -4.17322 -4.1548 -4.1364 -4.11806 -4.09964 -4.08129 -4.06293 -4.04456 -4.02632 -4.00797 -3.98977 -3.97159 -3.95343 -3.93543 -3.91738 -3.89945 -3.88152 -3.86359 -3.84582 -3.82805 -3.81033 -3.79263 -3.77494 -3.75731 -3.73977 -3.72223 -3.7047 -3.68716 -3.66963 -3.65218 -3.63479 -3.61741 -3.60005 -3.58275 -3.56555 -3.54838 -3.5312 -3.51402 -3.49692 -3.47996 -3.4629 -3.44584 -3.42879 -3.41168 -3.3948 -3.37784 -3.36087 -3.34388 -3.32686 -3.31007 -3.29325 -3.27644 -3.25963 -3.24282 -3.22626 -3.20968 -3.19309 -3.17649 -3.15991 -3.14359 -3.12722 -3.11084 -3.09447 -3.07805 -3.06193 -3.04575 -3.02957 -3.01337 -2.99712 -2.9812 -2.96521 -2.94923 -2.93324 -2.91724 -2.90153 -2.8858 -2.87007 -2.85433 -2.8386 -2.82316 -2.80775 -2.79234 -2.77693 -2.76156 -2.74645 -2.73141 -2.71637 -2.70134 -2.68637 -2.67165 -2.65704 -2.64245 -2.62789 -2.61346 -2.59924 -2.58511 -2.57099 -2.55688 -2.54285 -2.52895 -2.51528 -2.50164 -2.48801 -2.47458 -2.46122 -2.448 -2.4348 -2.42163 -2.40857 -2.39569 -2.38282 -2.36995 -2.3571 -2.34433 -2.33187 -2.31928 -2.30666 -2.29403 -2.28137 -2.26909 -2.25672 -2.24433 -2.23193 -2.21946 -2.20738 -2.19525 -2.18311 -2.17097 -2.1588 -2.1469 -2.13504 -2.12319 -2.11136 -2.09955 -2.08807 -2.07651 -2.06493 -2.05334 -2.0417 -2.03039 -2.01905 -2.0077 -1.99632 -1.9849 -1.97382 -1.9627 -1.95159 -1.94046 -1.92927 -1.91843 -1.90755 -1.89667 -1.88578 -1.87487 -1.86426 -1.8536 -1.84293 -1.83226 -1.82154 -1.8111 -1.80067 -1.79023 -1.77977 -1.76933 -1.75915 -1.74897 -1.73878 -1.72859 -1.7184 -1.70853 -1.69862 -1.68871 -1.67882 -1.66891 -1.65929 -1.64969 -1.64012 -1.63057 -1.62103 -1.61175 -1.60256 -1.59338 -1.58418 -1.57505 -1.56614 -1.55727 -1.54843 -1.5396 -1.53076 -1.52222 -1.51362 -1.50501 -1.49641 -1.48777 -1.47943 -1.47105 -1.46265 -1.45424 -1.44584 -1.43766 -1.42951 -1.42136 -1.41319 -1.40501 -1.39708 -1.38912 -1.38117 -1.37322 -1.36524 -1.35751 -1.34972 -1.34191 -1.33411 -1.32626 -1.31871 -1.31108 -1.30342 -1.29573 -1.28798 -1.2805 -1.273 -1.26549 -1.25794 -1.25035 -1.24299 -1.23561 -1.22823 -1.22082 -1.21334 -1.20617 -1.19888 -1.19155 -1.18425 -1.17686 -1.1698 -1.16266 -1.1554 -1.14808 -1.14071 -1.13373 -1.12662 -1.11952 -1.11254 -1.10543 -1.09879 -1.09252 -1.08571 -1.07879 -1.0722 -1.06635 -1.06063 -1.05489 -1.04863 -1.0417 -1.02198 -1.00662 -0.991687 -0.977969 -0.969013 -0.957989 -0.946905 -0.935821 -0.926013 -0.917264 -0.896853 -0.878504 -0.860155 -0.841204 -0.821986 -0.819716 -0.817446 -0.815176 -0.812962 -0.810849 -0.791788 -0.772617 -0.753445 -0.734417 -0.717712 -0.699415 -0.68169 -0.663955 -0.646219 -0.630997 -0.596569 -0.56452 -0.532694 -0.50104 -0.472263 -0.445067 -0.420574 -0.395998 -0.371188 -0.350637 -0.315794 -0.283341 -0.250888 -0.218435 -0.188015 -0.16866 -0.149458 -0.130256 -0.111076 -0.0912824 -0.0793704 -0.0670363 -0.0547023 -0.0423683 -0.0295101 -0.0245744 -0.0187151 -0.0128558 -0.00699651 -0.0008147 -0.00129371 -0.000591881 0.000110903 0.000814638 0.00220634