# vtk DataFile Version 2.0
track0
ASCII
DATASET POLYDATA
POINTS 15805 float
-1.001 -0.05 0.0011
-1.0008 -0.05 0.0011
-1.0006 -0.05 0.0011
-1.0004 -0.05 0.00109999
-1.0002 -0.05 0.00109999
-1 -0.05 0.00109999
-0.9875 -0.0500002 0.00109986
-0.975 -0.0500004 0.00109981
-0.9625 -0.0500007 0.00109977
-0.95 -0.050001 0.00109972
-0.9375 -0.0500013 0.00109968
-0.925 -0.0500013 0.00109955
-0.9125 -0.0500016 0.0010995
-0.9 -0.0500018 0.00109944
-0.8875 -0.0500021 0.00109939
-0.875 -0.0500023 0.00109933
-0.8625 -0.0500023 0.0010992
-0.85 -0.0500026 0.00109914
-0.8375 -0.0500028 0.00109908
-0.825 -0.0500031 0.00109901
-0.8125 -0.0500033 0.00109895
-0.8 -0.0500034 0.00109882
-0.7875 -0.0500037 0.00109875
-0.775 -0.0500039 0.00109867
-0.7625 -0.0500041 0.0010986
-0.75 -0.0500044 0.00109853
-0.7375 -0.0500044 0.00109839
-0.725 -0.0500047 0.00109831
-0.7125 -0.0500049 0.00109823
-0.7 -0.0500051 0.00109815
-0.6875 -0.0500054 0.00109807
-0.675 -0.0500054 0.00109793
-0.6625 -0.0500056 0.00109784
-0.65 -0.0500059 0.00109776
-0.6375 -0.0500061 0.00109767
-0.625 -0.0500064 0.00109759
-0.6125 -0.0500065 0.00109745
-0.6 -0.0500067 0.00109736
-0.5875 -0.050007 0.00109727
-0.575 -0.0500072 0.00109718
-0.5625 -0.0500075 0.00109709
-0.55 -0.0500076 0.00109694
-0.5375 -0.0500078 0.00109685
-0.525 -0.0500081 0.00109676
-0.5125 -0.0500083 0.00109666
-0.5 -0.0500086 0.00109657
-0.4875 -0.0500086 0.00109641
-0.475 -0.0500088 0.00109632
-0.4625 -0.050009 0.00109622
-0.45 -0.0500093 0.00109612
-0.4375 -0.0500095 0.00109603
-0.425 -0.0500095 0.00109586
-0.4125 -0.0500098 0.00109576
-0.4 -0.05001 0.00109566
-0.3875 -0.0500102 0.00109556
-0.375 -0.0500105 0.00109546
-0.3625 -0.0500105 0.00109529
-0.35 -0.0500107 0.00109519
-0.3375 -0.0500109 0.00109508
-0.325 -0.0500112 0.00109498
-0.3125 -0.0500114 0.00109488
-0.3 -0.0500115 0.00109471
-0.2875 -0.0500118 0.0010946
-0.275 -0.050012 0.00109449
-0.2625 -0.0500122 0.00109439
-0.25 -0.0500124 0.00109428
-0.2375 -0.0500126 0.00109411
-0.225 -0.0500128 0.001094
-0.2125 -0.050013 0.00109389
-0.2 -0.0500133 0.00109377
-0.1875 -0.0500135 0.00109366
-0.175 -0.0500135 0.00109348
-0.1625 -0.0500137 0.00109337
-0.15 -0.050014 0.00109325
-0.1375 -0.0500142 0.00109314
-0.125 -0.0500144 0.00109302
-0.1125 -0.0500145 0.00109285
-0.1 -0.0500147 0.00109273
-0.0875 -0.050015 0.00109261
-0.075 -0.0500152 0.00109249
-0.0625 -0.0500154 0.00109237
-0.05 -0.0500155 0.00109219
-0.0375 -0.0500158 0.00109207
-0.025 -0.050016 0.00109195
-0.0125 -0.0500162 0.00109183
3.2169e-12 -0.0500164 0.0010917
0.0125 -0.0500164 0.00109151
0.025 -0.0500166 0.00109139
0.0375 -0.0500169 0.00109126
0.05 -0.0500171 0.00109114
0.0625 -0.0500173 0.00109102
0.075 -0.0500173 0.00109082
0.0875 -0.0500175 0.00109069
0.1 -0.0500177 0.00109056
0.1125 -0.050018 0.00109044
0.125 -0.0500182 0.00109031
0.1375 -0.0500182 0.00109011
0.15 -0.0500184 0.00108998
0.1625 -0.0500186 0.00108985
0.175 -0.0500188 0.00108972
0.1875 -0.050019 0.00108959
0.2 -0.0500192 0.00108939
0.2125 -0.0500194 0.00108926
0.225 -0.0500196 0.00108912
0.2375 -0.0500198 0.00108899
0.25 -0.05002 0.00108885
0.2625 -0.05002 0.00108865
0.275 -0.0500202 0.00108851
0.2875 -0.0500204 0.00108838
0.3 -0.0500206 0.00108824
0.3125 -0.0500208 0.0010881
0.325 -0.0500208 0.0010879
0.3375 -0.050021 0.00108776
0.35 -0.0500212 0.00108762
0.3625 -0.0500214 0.00108748
0.375 -0.0500216 0.00108734
0.3875 -0.0500218 0.00108714
0.4 -0.050022 0.00108699
0.4125 -0.0500222 0.00108685
0.425 -0.0500224 0.00108671
0.4375 -0.0500226 0.00108657
0.45 -0.0500227 0.00108636
0.4625 -0.0500229 0.00108622
0.475 -0.0500231 0.00108608
0.4875 -0.0500233 0.00108593
0.5 -0.0500235 0.00108579
0.5125 -0.0500235 0.00108558
0.525 -0.0500237 0.00108543
0.5375 -0.0500238 0.00108529
0.55 -0.050024 0.00108514
0.5625 -0.0500242 0.001085
0.575 -0.0500242 0.00108478
0.5875 -0.0500244 0.00108463
0.6 -0.0500246 0.00108449
0.6125 -0.0500248 0.00108434
0.625 -0.050025 0.00108419
0.6375 -0.050025 0.00108398
0.65 -0.0500251 0.00108383
0.6625 -0.0500253 0.00108368
0.675 -0.0500255 0.00108353
0.6875 -0.0500257 0.00108339
0.7 -0.0500258 0.00108317
0.7125 -0.050026 0.00108302
0.725 -0.0500262 0.00108288
0.7375 -0.0500263 0.00108273
0.75 -0.0500265 0.00108258
0.7625 -0.0500266 0.00108236
0.775 -0.0500268 0.00108221
0.7875 -0.050027 0.00108207
0.8 -0.0500272 0.00108192
0.8125 -0.0500273 0.00108177
0.825 -0.0500273 0.00108155
0.8375 -0.0500275 0.0010814
0.85 -0.0500277 0.00108125
0.8625 -0.0500278 0.0010811
0.875 -0.050028 0.00108095
0.8875 -0.0500281 0.00108074
0.9 -0.0500283 0.00108059
0.9125 -0.0500284 0.00108044
0.925 -0.0500286 0.00108029
0.9375 -0.0500287 0.00108014
0.95 -0.0500288 0.00107992
0.9625 -0.050029 0.00107977
0.975 -0.0500291 0.00107963
0.9875 -0.0500293 0.00107948
1 -0.0500294 0.00107933
1.0125 -0.0500294 0.00107911
1.025 -0.0500295 0.00107896
1.0375 -0.0500297 0.00107881
1.05 -0.0500298 0.00107867
1.0625 -0.05003 0.00107852
1.075 -0.0500299 0.0010783
1.0875 -0.0500301 0.00107815
1.1 -0.0500302 0.00107801
1.1125 -0.0500304 0.00107786
1.125 -0.0500305 0.00107771
1.1375 -0.0500305 0.0010775
1.15 -0.0500306 0.00107735
1.1625 -0.0500307 0.00107721
1.175 -0.0500309 0.00107706
1.1875 -0.050031 0.00107692
1.2 -0.0500311 0.00107671
1.2125 -0.0500312 0.00107657
1.225 -0.0500313 0.00107642
1.2375 -0.0500315 0.00107628
1.25 -0.0500316 0.00107614
1.2625 -0.0500315 0.00107593
1.275 -0.0500317 0.00107579
1.2875 -0.0500318 0.00107565
1.3 -0.0500319 0.0010755
1.3125 -0.050032 0.00107536
1.325 -0.050032 0.00107516
1.3375 -0.0500321 0.00107502
1.35 -0.0500322 0.00107488
1.3625 -0.0500323 0.00107474
1.375 -0.0500324 0.0010746
1.3875 -0.0500324 0.0010744
1.4 -0.0500325 0.00107426
1.4125 -0.0500326 0.00107413
1.425 -0.0500327 0.00107399
1.4375 -0.0500328 0.00107385
1.45 -0.0500329 0.00107366
1.4625 -0.050033 0.00107353
1.475 -0.050033 0.00107339
1.4875 -0.0500331 0.00107326
1.5 -0.0500332 0.00107313
1.5125 -0.0500332 0.00107293
1.525 -0.0500332 0.0010728
1.5375 -0.0500333 0.00107267
1.55 -0.0500334 0.00107254
1.5625 -0.0500335 0.00107241
1.575 -0.0500334 0.00107222
1.5875 -0.0500335 0.00107209
1.6 -0.0500335 0.00107197
1.6125 -0.0500336 0.00107184
1.625 -0.0500337 0.00107171
1.6375 -0.0500336 0.00107153
1.65 -0.0500337 0.00107141
1.6625 -0.0500337 0.00107129
1.675 -0.0500338 0.00107116
1.6875 -0.0500339 0.00107104
1.7 -0.0500339 0.00107087
1.7125 -0.0500339 0.00107075
1.725 -0.050034 0.00107063
1.7375 -0.050034 0.00107051
1.75 -0.0500341 0.00107039
1.7625 -0.0500341 0.00107022
1.775 -0.0500342 0.00107011
1.7875 -0.0500342 0.00106999
1.8 -0.0500342 0.00106988
1.8125 -0.0500343 0.00106976
1.825 -0.0500342 0.0010696
1.8375 -0.0500342 0.00106949
1.85 -0.0500342 0.00106938
1.8625 -0.0500342 0.00106927
1.875 -0.0500343 0.00106916
1.8875 -0.0500343 0.001069
1.9 -0.0500343 0.00106889
1.9125 -0.0500343 0.00106879
1.925 -0.0500343 0.00106868
1.9375 -0.0500343 0.00106858
1.95 -0.0500343 0.00106843
1.9625 -0.0500343 0.00106833
1.975 -0.0500343 0.00106823
1.9875 -0.0500343 0.00106813
2 -0.0500343 0.00106803
2.0125 -0.0500342 0.00106788
2.025 -0.0500342 0.00106779
2.0375 -0.0500342 0.00106769
2.05 -0.0500341 0.0010676
2.0625 -0.0500341 0.0010675
2.075 -0.050034 0.00106736
2.0875 -0.050034 0.00106728
2.1 -0.050034 0.00106719
2.1125 -0.0500339 0.0010671
2.125 -0.0500339 0.00106701
2.1375 -0.0500338 0.00106688
2.15 -0.0500338 0.0010668
2.1625 -0.0500337 0.00106672
2.175 -0.0500337 0.00106664
2.1875 -0.0500337 0.00106655
2.2 -0.0500336 0.00106643
2.2125 -0.0500336 0.00106636
2.225 -0.0500335 0.00106628
2.2375 -0.0500335 0.00106621
2.25 -0.0500335 0.00106613
2.2625 -0.0500334 0.00106602
2.275 -0.0500333 0.00106595
2.2875 -0.0500332 0.00106588
2.3 -0.0500331 0.00106581
2.3125 -0.0500331 0.00106574
2.325 -0.050033 0.00106563
2.3375 -0.0500329 0.00106556
2.35 -0.0500328 0.0010655
2.3625 -0.0500327 0.00106543
2.375 -0.0500326 0.00106537
2.3875 -0.0500326 0.00106527
2.4 -0.0500325 0.00106521
2.4125 -0.0500324 0.00106515
2.425 -0.0500323 0.00106509
2.4375 -0.0500322 0.00106503
2.45 -0.0500321 0.00106495
2.4625 -0.050032 0.00106489
2.475 -0.0500319 0.00106484
2.4875 -0.0500318 0.00106478
2.5 -0.0500317 0.00106473
2.5125 -0.0500315 0.00106465
2.525 -0.0500314 0.0010646
2.5375 -0.0500313 0.00106455
2.55 -0.0500311 0.0010645
2.5625 -0.050031 0.00106445
2.575 -0.0500309 0.00106438
2.5875 -0.0500307 0.00106433
2.6 -0.0500306 0.00106429
2.6125 -0.0500304 0.00106425
2.625 -0.0500303 0.0010642
2.6375 -0.0500302 0.00106414
2.65 -0.05003 0.0010641
2.6625 -0.0500298 0.00106406
2.675 -0.0500297 0.00106402
2.6875 -0.0500295 0.00106398
2.7 -0.0500294 0.00106393
2.7125 -0.0500293 0.00106389
2.725 -0.0500291 0.00106386
2.7375 -0.0500289 0.00106383
2.75 -0.0500287 0.0010638
2.7625 -0.0500286 0.00106375
2.775 -0.0500284 0.00106372
2.7875 -0.0500282 0.00106369
2.8 -0.0500281 0.00106367
2.8125 -0.0500279 0.00106364
2.825 -0.0500277 0.0010636
2.8375 -0.0500275 0.00106357
2.85 -0.0500273 0.00106355
2.8625 -0.0500271 0.00106353
2.875 -0.0500268 0.00106351
2.8875 -0.0500267 0.00106347
2.9 -0.0500265 0.00106346
2.9125 -0.0500262 0.00106344
2.925 -0.050026 0.00106342
2.9375 -0.0500258 0.0010634
2.95 -0.0500256 0.00106338
2.9625 -0.0500253 0.00106337
2.975 -0.0500251 0.00106335
2.9875 -0.0500248 0.00106334
3 -0.0500246 0.00106333
3.0125 -0.0500244 0.00106331
3.025 -0.0500241 0.0010633
3.0375 -0.0500239 0.0010633
3.05 -0.0500236 0.00106329
3.0625 -0.0500234 0.00106328
3.075 -0.0500232 0.00106327
3.0875 -0.0500229 0.00106327
3.1 -0.0500226 0.00106326
3.1125 -0.0500223 0.00106326
3.125 -0.0500221 0.00106326
3.1375 -0.0500219 0.00106326
3.15 -0.0500216 0.00106326
3.1625 -0.0500213 0.00106326
3.175 -0.050021 0.00106326
3.1875 -0.0500207 0.00106327
3.2 -0.0500205 0.00106327
3.2125 -0.0500202 0.00106328
3.225 -0.0500199 0.00106329
3.2375 -0.0500196 0.0010633
3.25 -0.0500193 0.0010633
3.2625 -0.0500191 0.00106331
3.275 -0.0500187 0.00106333
3.2875 -0.0500184 0.00106334
3.3 -0.0500181 0.00106335
3.3125 -0.0500177 0.00106336
3.325 -0.0500175 0.00106338
3.3375 -0.0500172 0.0010634
3.35 -0.0500168 0.00106341
[...]
POINT_DATA 15805
 FIELD attributes 1
U 3 15805 float
20.0047 	-0.000258794 	-0.000188102 20.0046 	-0.000252496 	-0.000193283 20.0045 	-0.000246197 	-0.000198465 20.0045 	-0.000239898 	-0.000203646 20.0044 	-0.0002336 	-0.000208828 20.0043 	-0.000227301 	-0.000214009 20.0084 	-0.00045397 	-7.08614e-05 20.0084 	-0.000453951 	-7.08585e-05 20.0084 	-0.000453933 	-7.08557e-05 20.0084 	-0.000453915 	-7.08528e-05 20.0046 	-3.07196e-05 	-0.000204873 20.009 	-0.000407211 	-8.6973e-05 20.009 	-0.000407191 	-8.69687e-05 20.009 	-0.000407171 	-8.69644e-05 20.009 	-0.000407151 	-8.69601e-05 20.0048 	-3.01234e-05 	-0.000206711 20.0096 	-0.000387852 	-0.000103346 20.0096 	-0.00038783 	-0.00010334 20.0096 	-0.000387807 	-0.000103334 20.0096 	-0.000387784 	-0.000103328 20.0051 	-0.000189604 	-0.000203906 20.0101 	-0.00038223 	-0.000116662 20.0101 	-0.000382205 	-0.000116654 20.0101 	-0.000382179 	-0.000116646 20.0101 	-0.000382154 	-0.000116638 20.0054 	-3.05627e-05 	-0.000223853 20.0107 	-0.000391486 	-0.000127095 20.0107 	-0.000391457 	-0.000127086 20.0107 	-0.000391429 	-0.000127077 20.0107 	-0.000391401 	-0.000127068 20.0057 	-3.21085e-05 	-0.000231871 20.0114 	-0.000389941 	-0.000135374 20.0114 	-0.000389911 	-0.000135364 20.0114 	-0.000389881 	-0.000135353 20.0114 	-0.000389851 	-0.000135343 20.0061 	-0.000196036 	-0.000227009 20.012 	-0.000390614 	-0.00014233 20.012 	-0.000390582 	-0.000142318 20.012 	-0.000390551 	-0.000142307 20.012 	-0.000390519 	-0.000142295 20.0064 	-0.000196519 	-0.000234462 20.0127 	-0.000385154 	-0.000148758 20.0127 	-0.000385122 	-0.000148745 20.0127 	-0.000385089 	-0.000148732 20.0127 	-0.000385056 	-0.00014872 20.0067 	-2.49257e-05 	-0.000253224 20.0135 	-0.000373342 	-0.000155104 20.0135 	-0.000373309 	-0.00015509 20.0135 	-0.000373276 	-0.000155077 20.0135 	-0.000373243 	-0.000155063 20.0071 	-2.0213e-05 	-0.000260051 20.0142 	-0.000373051 	-0.000161263 20.0142 	-0.000373017 	-0.000161248 20.0142 	-0.000372983 	-0.000161233 20.0142 	-0.000372948 	-0.000161219 20.0075 	-1.80926e-05 	-0.000266883 20.015 	-0.000372904 	-0.00016739 20.015 	-0.000372869 	-0.000167374 20.015 	-0.000372833 	-0.000167358 20.015 	-0.000372797 	-0.000167342 20.0079 	-0.000193336 	-0.000263309 20.0158 	-0.000372241 	-0.000173458 20.0158 	-0.000372205 	-0.000173441 20.0158 	-0.000372168 	-0.000173424 20.0158 	-0.000372131 	-0.000173406 20.0083 	-0.000193945 	-0.000270034 20.0166 	-0.00037082 	-0.000178674 20.0166 	-0.000370782 	-0.000178656 20.0166 	-0.000370745 	-0.000178638 20.0166 	-0.000370707 	-0.000178619 20.0087 	-1.08676e-05 	-0.000286602 20.0175 	-0.000361662 	-0.000184111 20.0175 	-0.000361624 	-0.000184091 20.0175 	-0.000361586 	-0.000184072 20.0175 	-0.000361548 	-0.000184052 20.0092 	-0.000191362 	-0.000283232 20.0183 	-0.000360589 	-0.000189802 20.0183 	-0.00036055 	-0.000189782 20.0183 	-0.000360511 	-0.000189761 20.0183 	-0.000360472 	-0.00018974 20.0096 	-0.000190633 	-0.000289759 20.0193 	-0.000354188 	-0.000195358 20.0193 	-0.000354149 	-0.000195336 20.0193 	-0.000354109 	-0.000195314 20.0192 	-0.00035407 	-0.000195292 20.0101 	-2.90037e-06 	-0.000305414 20.0202 	-0.000350054 	-0.000199696 20.0202 	-0.000350014 	-0.000199673 20.0202 	-0.000349974 	-0.000199651 20.0202 	-0.000349934 	-0.000199628 20.0105 	6.8856e-07 	-0.000311321 20.0212 	-0.000349023 	-0.000205121 20.0212 	-0.000348982 	-0.000205096 20.0212 	-0.000348941 	-0.000205072 20.0212 	-0.0003489 	-0.000205048 20.011 	3.02853e-06 	-0.000317074 20.0221 	-0.000347533 	-0.000209985 20.0221 	-0.000347491 	-0.000209959 20.0221 	-0.000347449 	-0.000209934 20.0221 	-0.000347408 	-0.000209909 20.0115 	-0.000188708 	-0.000313419 20.0231 	-0.000346512 	-0.000214659 20.0231 	-0.000346469 	-0.000214632 20.0231 	-0.000346427 	-0.000214606 20.0231 	-0.000346384 	-0.000214579 20.012 	6.73845e-06 	-0.000327423 20.0242 	-0.000329454 	-0.000218725 20.0242 	-0.000329412 	-0.000218697 20.0242 	-0.000329371 	-0.00021867 20.0242 	-0.00032933 	-0.000218642 20.0126 	1.0462e-05 	-0.000331961 20.0252 	-0.000325796 	-0.000222665 20.0252 	-0.000325755 	-0.000222636 20.0252 	-0.000325713 	-0.000222608 20.0252 	-0.000325671 	-0.00022258 20.0131 	-0.000182864 	-0.000327685 20.0263 	-0.000323186 	-0.000226242 20.0263 	-0.000323144 	-0.000226213 20.0263 	-0.000323102 	-0.000226183 20.0263 	-0.00032306 	-0.000226154 20.0137 	-0.000181469 	-0.000331744 20.0274 	-0.000317809 	-0.000229697 20.0274 	-0.000317767 	-0.000229667 20.0274 	-0.000317725 	-0.000229636 20.0274 	-0.000317684 	-0.000229606 20.0142 	1.74247e-05 	-0.000343386 20.0285 	-0.00030574 	-0.00023233 20.0285 	-0.000305699 	-0.000232299 20.0285 	-0.000305658 	-0.000232268 20.0285 	-0.000305618 	-0.000232237 20.0147 	2.05374e-05 	-0.000346167 20.0296 	-0.000301338 	-0.000234802 20.0296 	-0.000301298 	-0.000234771 20.0296 	-0.000301257 	-0.000234739 20.0296 	-0.000301216 	-0.000234707 20.0153 	2.18962e-05 	-0.000348432 20.0307 	-0.000296907 	-0.000236544 20.0307 	-0.000296867 	-0.000236512 20.0307 	-0.000296826 	-0.000236479 20.0307 	-0.000296786 	-0.000236447 20.0159 	-0.000168667 	-0.000342385 20.0319 	-0.000291896 	-0.00023806 20.0318 	-0.000291856 	-0.000238028 20.0318 	-0.000291816 	-0.000237995 20.0318 	-0.000291776 	-0.000237962 20.0165 	-0.000165524 	-0.000343574 20.033 	-0.000285343 	-0.00023862 20.033 	-0.000285304 	-0.000238587 20.033 	-0.000285264 	-0.000238554 20.033 	-0.000285225 	-0.000238521 20.017 	3.01271e-05 	-0.000351664 20.0341 	-0.000267687 	-0.000239411 20.0341 	-0.00026765 	-0.000239378 20.0341 	-0.000267613 	-0.000239345 20.0341 	-0.000267576 	-0.000239312 20.0176 	-0.000152877 	-0.000344144 20.0353 	-0.000260859 	-0.000239739 20.0353 	-0.000260823 	-0.000239706 20.0353 	-0.000260787 	-0.000239673 20.0353 	-0.000260751 	-0.000239639 20.0182 	-0.000145862 	-0.000343454 20.0364 	-0.000241097 	-0.000239061 20.0364 	-0.000241063 	-0.000239028 20.0364 	-0.00024103 	-0.000238995 20.0364 	-0.000240997 	-0.000238962 20.0188 	4.55895e-05 	-0.00034902 20.0376 	-0.000228796 	-0.000237207 20.0376 	-0.000228765 	-0.000237175 20.0376 	-0.000228733 	-0.000237142 20.0376 	-0.000228702 	-0.00023711 20.0194 	4.92589e-05 	-0.000346565 20.0387 	-0.00022144 	-0.000235233 20.0387 	-0.00022141 	-0.000235201 20.0387 	-0.00022138 	-0.000235169 20.0387 	-0.00022135 	-0.000235137 20.0199 	5.16096e-05 	-0.000343493 20.0399 	-0.00021324 	-0.00023279 20.0399 	-0.000213212 	-0.000232759 20.0399 	-0.000213183 	-0.000232728 20.0399 	-0.000213154 	-0.000232696 20.0205 	-0.000119567 	-0.000333247 20.041 	-0.00020542 	-0.000229919 20.041 	-0.000205392 	-0.000229888 20.041 	-0.000205365 	-0.000229857 20.041 	-0.000205338 	-0.000229827 20.0211 	5.93629e-05 	-0.000335283 20.0421 	-0.000180468 	-0.000226713 20.0421 	-0.000180444 	-0.000226684 20.0421 	-0.00018042 	-0.000226654 20.0421 	-0.000180397 	-0.000226624 20.0217 	6.58772e-05 	-0.000330166 20.0432 	-0.000170335 	-0.00022341 20.0432 	-0.000170313 	-0.000223381 20.0432 	-0.000170291 	-0.000223352 20.0432 	-0.000170269 	-0.000223323 20.0222 	-9.36376e-05 	-0.000318266 20.0443 	-0.000156779 	-0.00021892 20.0443 	-0.000156759 	-0.000218892 20.0443 	-0.000156739 	-0.000218864 20.0443 	-0.000156719 	-0.000218836 20.0228 	-8.33605e-05 	-0.000311839 20.0453 	-0.0001345 	-0.000214463 20.0453 	-0.000134483 	-0.000214436 20.0453 	-0.000134467 	-0.000214409 20.0453 	-0.00013445 	-0.000214383 20.0233 	8.3666e-05 	-0.000310834 20.0464 	-0.000118572 	-0.000208968 20.0464 	-0.000118558 	-0.000208943 20.0464 	-0.000118543 	-0.000208917 20.0464 	-0.000118529 	-0.000208892 20.0238 	8.85405e-05 	-0.00030305 20.0474 	-0.000107767 	-0.000203119 20.0474 	-0.000107754 	-0.000203095 20.0474 	-0.000107741 	-0.000203071 20.0474 	-0.000107728 	-0.000203047 20.0243 	9.20076e-05 	-0.000294665 20.0484 	-9.62809e-05 	-0.000196804 20.0484 	-9.62698e-05 	-0.000196781 20.0484 	-9.62588e-05 	-0.000196759 20.0484 	-9.62478e-05 	-0.000196736 20.0248 	-4.3082e-05 	-0.000279883 20.0493 	-8.62876e-05 	-0.000190452 20.0493 	-8.6278e-05 	-0.000190431 20.0493 	-8.62685e-05 	-0.00019041 20.0493 	-8.62589e-05 	-0.000190389 20.0253 	-3.11539e-05 	-0.000270558 20.0503 	-5.89844e-05 	-0.000183444 20.0503 	-5.89781e-05 	-0.000183425 20.0503 	-5.89718e-05 	-0.000183405 20.0502 	-5.89654e-05 	-0.000183386 20.0258 	0.000113894 	-0.000266405 20.0512 	-2.82332e-05 	-0.000176911 20.0512 	-2.82303e-05 	-0.000176893 20.0512 	-2.82274e-05 	-0.000176875 20.0511 	-2.82245e-05 	-0.000176856 20.0262 	-9.6607e-07 	-0.000250429 20.052 	-1.20863e-05 	-0.000169578 20.052 	-1.20851e-05 	-0.000169562 20.052 	-1.20839e-05 	-0.000169545 20.052 	-1.20828e-05 	-0.000169528 20.0267 	1.14283e-05 	-0.000239713 20.0528 	6.92706e-06 	-0.000161363 20.0528 	6.92641e-06 	-0.000161348 20.0528 	6.92576e-06 	-0.000161332 20.0528 	6.92511e-06 	-0.000161317 20.0271 	0.000135559 	-0.000233903 20.0536 	2.86031e-05 	-0.000151673 20.0536 	2.86006e-05 	-0.000151659 20.0536 	2.8598e-05 	-0.000151646 20.0536 	2.85955e-05 	-0.000151632 20.0275 	0.000142252 	-0.000222295 20.0544 	4.45275e-05 	-0.000140671 20.0544 	4.45239e-05 	-0.000140659 20.0543 	4.45202e-05 	-0.000140648 20.0543 	4.45166e-05 	-0.000140636 20.0279 	0.000147194 	-0.000210463 20.0551 	6.04832e-05 	-0.000130707 20.055 	6.04786e-05 	-0.000130697 20.055 	6.0474e-05 	-0.000130687 20.055 	6.04694e-05 	-0.000130677 20.0282 	6.03505e-05 	-0.000193392 20.0557 	7.32666e-05 	-0.000121219 20.0557 	7.32614e-05 	-0.00012121 20.0557 	7.32562e-05 	-0.000121201 20.0557 	7.3251e-05 	-0.000121193 20.0285 	0.000161206 	-0.000185883 20.0563 	0.000110706 	-0.000112413 20.0563 	0.000110699 	-0.000112405 20.0563 	0.000110691 	-0.000112398 20.0563 	0.000110684 	-0.000112391 20.0289 	0.000172005 	-0.000173147 20.0569 	0.0001304 	-0.000104021 20.0569 	0.000130392 	-0.000104015 20.0569 	0.000130384 	-0.000104008 20.0569 	0.000130376 	-0.000104002 20.0292 	0.000103916 	-0.000155655 20.0574 	0.000151742 	-9.5015e-05 20.0574 	0.000151734 	-9.50097e-05 20.0574 	0.000151725 	-9.50044e-05 20.0574 	0.000151717 	-9.49991e-05 20.0294 	0.000120708 	-0.000142611 20.0579 	0.000187544 	-8.66615e-05 20.0579 	0.000187534 	-8.66571e-05 20.0579 	0.000187525 	-8.66527e-05 20.0579 	0.000187515 	-8.66483e-05 20.0297 	0.000202433 	-0.000133865 20.0584 	0.000212739 	-7.80988e-05 20.0584 	0.00021273 	-7.80952e-05 20.0583 	0.00021272 	-7.80917e-05 20.0583 	0.00021271 	-7.80881e-05 20.0299 	0.000210748 	-0.000120558 20.0588 	0.000231966 	-6.94932e-05 20.0588 	0.000231957 	-6.94904e-05 20.0587 	0.000231947 	-6.94876e-05 20.0587 	0.000231938 	-6.94847e-05 20.0301 	0.00021738 	-0.000107425 20.0591 	0.000251243 	-6.1143e-05 20.0591 	0.000251234 	-6.11408e-05 20.0591 	0.000251225 	-6.11386e-05 20.0591 	0.000251216 	-6.11364e-05 20.0303 	0.000177156 	-9.00524e-05 20.0594 	0.000268463 	-5.26281e-05 20.0594 	0.000268455 	-5.26265e-05 20.0594 	0.000268447 	-5.26248e-05 20.0594 	0.000268438 	-5.26232e-05 20.0304 	0.000194441 	-7.69114e-05 20.0597 	0.000306342 	-4.4091e-05 20.0597 	0.000306334 	-4.40899e-05 20.0597 	0.000306326 	-4.40887e-05 20.0597 	0.000306318 	-4.40876e-05 20.0306 	0.000251696 	-6.81244e-05 20.0599 	0.000348943 	-3.61252e-05 20.0599 	0.000348936 	-3.61245e-05 20.0599 	0.000348928 	-3.61237e-05 20.0599 	0.000348921 	-3.61229e-05 20.0307 	0.000236257 	-5.10647e-05 20.0601 	0.00037269 	-2.80097e-05 20.0601 	0.000372684 	-2.80092e-05 20.0601 	0.000372678 	-2.80087e-05 20.0601 	0.000372672 	-2.80083e-05 20.0308 	0.000274738 	-4.24842e-05 20.0602 	0.000401305 	-1.94562e-05 20.0602 	0.000401301 	-1.9456e-05 20.0602 	0.000401296 	-1.94558e-05 20.0602 	0.000401292 	-1.94555e-05 20.0308 	0.000284685 	-3.01433e-05 20.0603 	0.000424962 	-1.16493e-05 20.0603 	0.000424959 	-1.16493e-05 20.0603 	0.000424956 	-1.16492e-05 20.0603 	0.000424953 	-1.16491e-05 20.0309 	0.00029371 	-1.83337e-05 20.0604 	0.000448937 	-4.04557e-06 20.0604 	0.000448936 	-4.04556e-06 20.0604 	0.000448935 	-4.04555e-06 20.0604 	0.000448934 	-4.04554e-06 20.0309 	0.00030326 	-6.76795e-06 20.0604 	0.000471904 	4.87157e-06 20.0604 	0.000471905 	4.87158e-06 20.0604 	0.000471907 	4.8716e-06 20.0604 	0.000471908 	4.87161e-06 20.0309 	0.000311236 	8.48188e-06 20.0603 	0.000495722 	1.26742e-05 20.0603 	0.000495725 	1.26743e-05 20.0603 	0.000495729 	1.26744e-05 20.0603 	0.000495733 	1.26745e-05 20.0309 	0.00032558 	1.55271e-05 20.0603 	0.000524675 	1.97261e-05 20.0603 	0.000524681 	1.97263e-05 20.0603 	0.000524687 	1.97265e-05 20.0603 	0.000524693 	1.97268e-05 20.0309 	0.000338466 	2.61587e-05 20.0602 	0.000549833 	2.67399e-05 20.0602 	0.000549842 	2.67403e-05 20.0602 	0.000549851 	2.67407e-05 20.0602 	0.000549859 	2.67411e-05 20.0308 	0.000357487 	3.99637e-05 20.06 	0.000573386 	3.38886e-05 20.06 	0.000573397 	3.38893e-05 20.06 	0.000573409 	3.389e-05 20.06 	0.00057342 	3.38906e-05 20.0307 	0.000375272 	4.97022e-05 20.0598 	0.000616085 	4.1e-05 20.0598 	0.0006161 	4.1001e-05 20.0598 	0.000616115 	4.1002e-05 20.0598 	0.00061613 	4.10029e-05 20.0306 	0.000377991 	5.60763e-05 20.0596 	0.000647726 	4.78028e-05 20.0596 	0.000647744 	4.78041e-05 20.0596 	0.000647762 	4.78055e-05 20.0596 	0.00064778 	4.78068e-05 20.0305 	0.000393119 	6.52492e-05 20.0594 	0.000673774 	5.41321e-05 20.0594 	0.000673796 	5.41339e-05 20.0594 	0.000673817 	5.41356e-05 20.0594 	0.000673839 	5.41373e-05 20.0304 	0.000406693 	7.39472e-05 20.0591 	0.0006992 	6.07629e-05 20.0591 	0.000699225 	6.07651e-05 20.0591 	0.00069925 	6.07672e-05 20.0591 	0.000699275 	6.07694e-05 20.0303 	0.000447044 	8.51842e-05 20.0588 	0.000724742 	6.63661e-05 20.0588 	0.00072477 	6.63687e-05 20.0588 	0.000724798 	6.63713e-05 20.0588 	0.000724826 	6.63739e-05 20.0301 	0.000464604 	9.28545e-05 20.0585 	0.000760585 	7.1279e-05 20.0585 	0.000760617 	7.12819e-05 20.0585 	0.000760649 	7.12849e-05 20.0585 	0.00076068 	7.12879e-05 20.03 	0.000453041 	9.69565e-05 20.0581 	0.000809406 	7.576e-05 20.0581 	0.000809442 	7.57633e-05 20.0581 	0.000809478 	7.57667e-05 20.0581 	0.000809514 	7.577e-05 20.0298 	0.000470126 	0.000103855 20.0577 	0.000836205 	8.05678e-05 20.0577 	0.000836245 	8.05716e-05 20.0577 	0.000836284 	8.05754e-05 20.0577 	0.000836324 	8.05792e-05 20.0296 	0.000525069 	0.000112984 20.0573 	0.000878034 	8.59593e-05 20.0573 	0.000878078 	8.59636e-05 20.0573 	0.000878122 	8.5968e-05 20.0573 	0.000878166 	8.59723e-05 20.0294 	0.000545173 	0.000119343 20.0569 	0.000910398 	9.1159e-05 20.0569 	0.000910447 	9.11639e-05 20.0569 	0.000910495 	9.11687e-05 20.0569 	0.000910544 	9.11736e-05 20.0292 	0.000522628 	0.000122641 20.0565 	0.000964226 	9.38328e-05 20.0565 	0.000964279 	9.38379e-05 20.0565 	0.000964332 	9.38431e-05 20.0565 	0.000964385 	9.38482e-05 20.029 	0.00054341 	0.000127721 20.056 	0.000999334 	9.75487e-05 20.056 	0.000999391 	9.75542e-05 20.056 	0.000999448 	9.75598e-05 20.056 	0.000999505 	9.75653e-05 20.0287 	0.000605281 	0.000134392 20.0555 	0.00102633 	0.000100382 20.0555 	0.00102639 	0.000100388 20.0555 	0.00102645 	0.000100394 20.0555 	0.00102651 	0.0001004 20.0285 	0.000575017 	0.000136212 20.055 	0.0010733 	0.000102131 20.055 	0.00107336 	0.000102137 20.055 	0.00107342 	0.000102144 20.055 	0.00107349 	0.00010215 20.0283 	0.000592548 	0.000139635 20.0545 	0.00110037 	0.000104173 20.0545 	0.00110043 	0.000104179 20.0545 	0.0011005 	0.000104185 20.0545 	0.00110057 	0.000104192 20.028 	0.000655917 	0.000144401 20.054 	0.00112624 	0.000105981 20.054 	0.00112631 	0.000105987 20.054 	0.00112638 	0.000105994 20.054 	0.00112645 	0.000106 20.0277 	0.000670675 	0.000146935 20.0535 	0.0011572 	0.000107294 20.0535 	0.00115727 	0.000107301 20.0535 	0.00115734 	0.000107308 20.0535 	0.00115741 	0.000107314 20.0275 	0.0006344 	0.000147345 20.0529 	0.00119217 	0.000109136 20.0529 	0.00119224 	0.000109143 20.053 	0.00119232 	0.00010915 20.053 	0.00119239 	0.000109157 20.0272 	0.000649256 	0.000149147 20.0524 	0.00122049 	0.000110113 20.0524 	0.00122057 	0.00011012 20.0524 	0.00122065 	0.000110127 20.0524 	0.00122073 	0.000110134 20.027 	0.000662596 	0.000150379 20.0519 	0.00124848 	0.000110822 20.0519 	0.00124856 	0.000110829 20.0519 	0.00124864 	0.000110836 20.0519 	0.00124872 	0.000110843 20.0267 	0.0007318 	0.000153207 20.0513 	0.00127694 	0.000111177 20.0513 	0.00127702 	0.000111184 20.0513 	0.0012771 	0.000111191 20.0513 	0.00127719 	0.000111199 20.0264 	0.000746647 	0.000154017 20.0508 	0.00130988 	0.000111451 20.0508 	0.00130996 	0.000111458 20.0508 	0.00131005 	0.000111465 20.0508 	0.00131013 	0.000111472 20.0262 	0.000708709 	0.000151948 20.0502 	0.00134812 	0.000110753 20.0502 	0.0013482 	0.00011076 20.0502 	0.00134829 	0.000110767 20.0502 	0.00134838 	0.000110774 20.0259 	0.000779964 	0.00015375 20.0497 	0.00137647 	0.000110031 20.0497 	0.00137655 	0.000110038 20.0497 	0.00137664 	0.000110045 20.0497 	0.00137673 	0.000110052 20.0256 	0.000795817 	0.000153027 20.0491 	0.00141462 	0.000109537 20.0491 	0.00141471 	0.000109544 20.0491 	0.0014148 	0.000109551 20.0491 	0.00141489 	0.000109558 20.0253 	0.000812528 	0.000152754 20.0485 	0.00144674 	0.000108746 20.0485 	0.00144683 	0.000108753 20.0486 	0.00144692 	0.00010876 20.0486 	0.00144702 	0.000108767 20.0251 	0.000777123 	0.000149675 20.048 	0.00148811 	0.000106768 20.048 	0.0014882 	0.000106774 20.048 	0.00148829 	0.000106781 20.048 	0.00148838 	0.000106788 20.0248 	0.000794084 	0.000148262 20.0475 	0.00151637 	0.000105678 20.0475 	0.00151647 	0.000105684 20.0475 	0.00151656 	0.000105691 20.0475 	0.00151665 	0.000105697 20.0245 	0.000859297 	0.000148842 20.0469 	0.00154354 	0.000104826 20.0469 	0.00154364 	0.000104832 20.0469 	0.00154373 	0.000104838 20.0469 	0.00154383 	0.000104845 20.0243 	0.000823478 	0.00014568 20.0464 	0.00157254 	0.00010373 20.0464 	0.00157263 	0.000103736 20.0464 	0.00157273 	0.000103742 20.0464 	0.00157282 	0.000103749 20.024 	0.000838386 	0.000143937 20.0459 	0.00160312 	0.000102009 20.0459 	0.00160321 	0.000102015 20.0459 	0.00160331 	0.000102021 20.0459 	0.0016034 	0.000102027 20.0237 	0.000900544 	0.000143433 20.0453 	0.0016336 	0.000100114 20.0453 	0.0016337 	0.00010012 20.0453 	0.00163379 	0.000100126 20.0453 	0.00163389 	0.000100131 20.0235 	0.000914902 	0.000141039 20.0448 	0.00166499 	9.79541e-05 20.0448 	0.00166508 	9.79597e-05 20.0448 	0.00166518 	9.79653e-05 20.0448 	0.00166527 	9.79709e-05 20.0233 	0.000884704 	0.000136835 20.0443 	0.0016937 	9.58536e-05 20.0443 	0.00169379 	9.5859e-05 20.0443 	0.00169389 	9.58643e-05 20.0443 	0.00169398 	9.58696e-05 20.023 	0.00089953 	0.000134263 20.0438 	0.00172418 	9.35737e-05 20.0438 	0.00172428 	9.35788e-05 20.0438 	0.00172437 	9.35839e-05 20.0438 	0.00172446 	9.3589e-05 20.0228 	0.000914359 	0.000131441 20.0433 	0.00175398 	9.10073e-05 20.0433 	0.00175407 	9.10121e-05 20.0433 	0.00175417 	9.10169e-05 20.0433 	0.00175426 	9.10217e-05 20.0225 	0.000969112 	0.00013063 20.0428 	0.00178353 	8.85359e-05 20.0428 	0.00178362 	8.85405e-05 20.0428 	0.00178372 	8.8545e-05 20.0429 	0.00178381 	8.85496e-05 20.0223 	0.000982287 	0.000127861 20.0424 	0.00181351 	8.54728e-05 20.0424 	0.0018136 	8.5477e-05 20.0424 	0.00181369 	8.54812e-05 20.0424 	0.00181378 	8.54855e-05 20.0221 	0.000959241 	0.000122326 20.0419 	0.00184102 	8.27173e-05 20.0419 	0.0018411 	8.27213e-05 20.0419 	0.00184119 	8.27253e-05 20.0419 	0.00184128 	8.27292e-05 20.0218 	0.0010072 	0.000121671 20.0415 	0.00186801 	8.0258e-05 20.0415 	0.00186809 	8.02618e-05 20.0415 	0.00186818 	8.02655e-05 20.0415 	0.00186827 	8.02693e-05 20.0216 	0.00101802 	0.000118634 20.041 	0.00189292 	7.74446e-05 20.041 	0.00189301 	7.74481e-05 20.041 	0.00189309 	7.74516e-05 20.041 	0.00189318 	7.7455e-05 20.0214 	0.000999984 	0.000113042 20.0406 	0.00191758 	7.4249e-05 20.0406 	0.00191766 	7.42522e-05 20.0406 	0.00191775 	7.42554e-05 20.0406 	0.00191783 	7.42586e-05 20.0212 	0.00101212 	0.000109422 20.0402 	0.00194623 	7.09185e-05 20.0402 	0.00194631 	7.09214e-05 20.0402 	0.00194639 	7.09243e-05 20.0402 	0.00194647 	7.09272e-05 20.021 	0.00102481 	0.00010572 20.0397 	0.00197469 	6.74604e-05 20.0397 	0.00197476 	6.7463e-05 20.0397 	0.00197484 	6.74656e-05 20.0397 	0.00197492 	6.74683e-05 20.0208