# vtk DataFile Version 2.0
sampleSurface
ASCII
DATASET POLYDATA
POINTS 9400 float
2.60369e-12 7.88861e-31 0 2.60369e-12 7.88861e-31 0.01875 -0.0625 0 0 0.0625 0
0 -0.0625 2.04574e-18 0.01875 0.0625 2.27264e-18 0.01875 2.45838e-12 -7.88861e-31 0.0805546
0.0625 0 0.080548 -0.0625 0 0.0805619 -0.125 0 0 0.125
0 0 -0.125 0 0.01875 0.125 0 0.01875 2.44092e-12 0
0.142361 0.125 -2.36236e-18 0.080537 -0.125 -1.99734e-18 0.0805727 0.155198 9.86076e-32 0
0.0625 2.25713e-18 0.142348 -0.0625 6.58074e-19 0.142376 0.155198 9.86076e-32 0.01875 -0.1875
0 0 0.1875 -1.97215e-31 0 0.17003 9.86076e-32 0.0805311 -0.1875 6.18262e-19
0.01875 0.1875 1.13376e-18 0.01875 0.125 0 0.142327 -0.125 -1.57772e-30 0.142397
0.1875 0 0.0805288 -0.1875 1.57772e-30 0.0805786 2.55289e-12 4.58002e-19 0.20417 0.0625
0 0.204149 -0.0625 0 0.204193 0.182675 -2.46519e-32 0.142311 0.1875 -2.46519e-32
0.14231 -0.1875 3.44655e-18 0.142409 0.125 1.8947e-18 0.20412 -0.125 8.62579e-19 0.204222
-0.25 0 0 0.25 0 0 -0.25 0 0.01875 0.25
0 0.01875 0.1875 0 0.171657 0.25 -1.85988e-18 0.0805215 -0.25 -7.89071e-19
0.0805852 2.80171e-12 0 0.265981 0.0625 -3.12196e-18 0.265952 -0.0625 0 0.266014
0.1875 0 0.204094 -0.1875 1.57772e-30 0.204241 0.192183 0 0.204092 0.25
0 0.142295 -0.25 0 0.142423 0.125 3.9443e-31 0.265926 -0.125 0
0.266049 -0.3125 1.57772e-30 0 0.3125 7.88861e-31 0 -0.3125 -2.90674e-18 0.01875
0.3125 -1.27488e-19 0.01875 0.3125 0 0.0805151 0.25 0 0.20407 -0.3125
0 0.0805924 -0.25 0 0.204262 0.1875 0 0.26588 -0.1875 5.62479e-19
0.266075 3.20058e-12 0 0.327795 0.199338 -9.86076e-32 0.265874 0.0625 0 0.327757
-0.0625 0 0.327848 0.3125 -2.71896e-18 0.142282 -0.3125 2.78209e-18 0.142437 0.125
6.9163e-19 0.327724 -0.125 2.08789e-18 0.327878 0.25 0 0.265848 -0.25 0
0.266105 0.3125 0 0.204049 -0.3125 0 0.204285 -0.375 0 0
0.375 0 0 -0.375 0 0.01875 0.375 0 0.01875 0.1875
0 0.32767 -0.1875 0 0.327912 0.375 -8.46552e-19 0.0805098 -0.375 -8.58061e-19
0.0806002 0.205871 0 0.327658 3.76968e-12 0 0.389612 0.0625 3.97291e-19 0.389565
-0.0625 2.2957e-18 0.389672 0.375 0 0.14227 -0.375 0 0.142454 0.125
0 0.389523 -0.125 0 0.389709 0.3125 0 0.265819 -0.3125 0
0.266137 0.25 -1.46378e-18 0.327628 -0.25 3.03983e-18 0.32795 0.375 0 0.204032
-0.375 2.41679e-18 0.20431 0.1875 -1.87127e-18 0.389464 -0.1875 3.73964e-19 0.389752 -0.4375
0 0 0.4375 0 0 -0.4375 1.89554e-18 0.01875 0.4375 -2.57557e-18
0.01875 0.213183 0 0.389442 0.4375 1.57772e-30 0.0805056 -0.4375 0 0.0806086
4.53883e-12 -3.03619e-18 0.451433 0.3125 0 0.32759 -0.3125 0 0.327991 0.0625
0 0.451375 -0.0625 1.57772e-30 0.451497 0.375 0 0.265795 -0.375 -1.57772e-30
0.266171 0.4375 3.41059e-18 0.142262 -0.4375 -9.03976e-19 0.142471 0.25 0 0.389411
-0.25 0 0.389799 0.125 -2.36403e-18 0.451324 -0.125 -5.90775e-19 0.451542 0.4375
0 0.204018 -0.4375 0 0.204337 0.1875 0 0.451262 -0.1875 0
0.451594 0.375 1.63705e-18 0.327558 -0.375 3.27259e-18 0.328036 0.3125 0 0.389363
-0.3125 -1.14983e-18 0.38985 -0.5 0 0 0.5 1.57772e-30 0 -0.5
0 0.01875 0.5 1.57772e-30 0.01875 0.222412 0 0.451226 0.5 2.84117e-18
0.0805025 -0.5 2.92717e-18 0.0806173 0.4375 -2.12621e-18 0.265775 -0.4375 -1.47432e-18 0.266207
5.55162e-12 1.57772e-30 0.513258 0.25 0 0.451197 -0.25 0 0.451651 0.0625
0 0.513189 -0.0625 4.3536e-19 0.513324 0.5 1.57772e-30 0.142255 -0.5 0
0.142489 0.125 0 0.513128 -0.125 0 0.513378 0.5 -1.57772e-30 0.204008
-0.5 3.15544e-30 0.204364 0.375 1.57772e-30 0.389324 -0.375 0 0.389905 0.1875
0 0.513077 0.4375 0 0.327533 -0.1875 0 0.51344 -0.4375 0
0.328082 0.3125 0 0.451139 -0.3125 3.15544e-30 0.451713 -0.5625 6.31089e-30 0
0.5625 3.15544e-30 0 -0.5625 -1.00175e-18 0.01875 0.5625 -2.39654e-18 0.01875 0.23435
0 0.513009 0.5 0 0.265761 -0.5 3.15544e-30 0.266245 0.5625 0
0.0805006 -0.5625 -6.31089e-30 0.0806264 0.25 0 0.512987 -0.25 0 0.513508
6.87235e-12 -3.15544e-30 0.5751 0.0625 0 0.575006 -0.0625 0 0.575154 0.5625
-3.18176e-18 0.142251 -0.5625 2.78172e-19 0.142507 0.4375 -3.799e-19 0.389292 -0.4375 4.15711e-19
0.389963 0.375 -3.25704e-18 0.451091 -0.375 -1.7012e-18 0.45178 0.125 3.22891e-18 0.574935
-0.125 2.76461e-18 0.575218 0.5 1.53587e-19 0.327515 -0.5 1.56796e-18 0.328131 0.5625
-3.15544e-30 0.204002 -0.5625 0 0.204393 0.3125 -3.04445e-18 0.512918 -0.3125 -1.22914e-18
0.513582 0.1875 -7.88861e-31 0.574873 -0.1875 3.15544e-30 0.57529 0.5625 0 0.265753
-0.5625 0 0.266284 -0.625 0 0 0.625 0 0 -0.625
0 0.01875 0.625 0 0.01875 0.249434 0 0.574782 0.25 -2.35481e-18
0.574782 -0.25 2.86973e-18 0.57537 0.25 0 0.576361 0.4375 0 0.451052
-0.4375 0 0.451849 0.625 -4.13928e-19 0.0805 -0.625 1.78069e-18 0.0806358 0.5
-3.15544e-30 0.389269 -0.5 0 0.390023 0.375 0 0.512859 -0.375 0
0.51366 8.59817e-12 0 0.636923 0.0625 -4.29693e-19 0.636828 -0.0625 2.53227e-18 0.636986
0.625 0 0.14225 -0.625 0 0.142527 0.125 0 0.636744 -0.125
0 0.63706 0.5625 0 0.327504 -0.5625 0 0.328182 0.3125 7.88861e-31
0.5747 -0.3125 0 0.575456 0.625 -2.48369e-18 0.204 -0.625 2.63567e-18 0.204423
0.1875 -2.99188e-18 0.636672 -0.1875 1.69459e-18 0.637144 0.5 -3.15544e-30 0.451023 -0.5
6.31089e-30 0.451922 0.4375 0 0.512812 -0.4375 0 0.513742 0.625 0
0.26575 -0.625 0 0.266325 0.25 0 0.636581 0.5625 -2.7276e-18 0.389255
-0.25 0 0.637237 -0.5625 -2.95645e-18 0.390085 0.375 -2.32583e-18 0.57463 -0.375
-1.63671e-19 0.575547 -0.6875 0 0 0.6875 0 0 -0.6875 7.54477e-19
0.01875 0.6875 2.80491e-18 0.01875 0.265822 0 0.636557 0.6875 0 0.0804911
-0.6875 2.52435e-29 0.0806455 1.08822e-11 3.25112e-18 0.698748 0.0625 -3.15544e-30 0.698655 -0.0625
0 0.698821 0.6875 0 0.142233 -0.6875 -5.02969e-19 0.142546 0.625 0
0.3275 -0.625 -2.67663e-18 0.32822 0.3125 2.79272e-18 0.636486 0.125 2.61292e-18 0.698557
-0.3125 -2.72054e-18 0.637337 -0.125 2.93961e-18 0.698907 0.5 -3.15544e-30 0.512778 -0.5
0 0.513828 0.6875 0 0.203976 -0.6875 0 0.204444 0.5625 0
0.451006 -0.5625 0 0.451996 0.4375 0 0.574574 -0.4375 0 0.575643
0.1875 0 0.698474 -0.1875 -6.31089e-30 0.699004 0.625 0 0.38925 -0.625
1.26218e-29 0.390123 0.6875 2.67855e-18 0.26572 -0.6875 3.2715e-19 0.266348 0.375 0
0.636404 -0.375 0 0.637442 0.25 -2.90235e-18 0.698407 -0.25 0 0.699111
-0.75 5.04871e-29 0 0.75 0 0 -0.75 5.04871e-29 0.01875 0.75
0 0.01875 0.75 0 0.0804865 -0.75 0 0.0806519 0.285281 3.9443e-31
0.698333 1.39788e-11 -6.31089e-30 0.760575 0.5625 -5.36693e-20 0.512757 0.6875 0 0.327466
0.5 -2.55668e-18 0.574533 -0.6875 0 0.328255 -0.5625 0 0.513884 -0.5
2.53415e-18 0.575741 0.0625 0 0.760507 -0.0625 -1.16387e-18 0.76066 0.75 0
0.142224 -0.75 0 0.142557 0.3125 0 0.698276 -0.3125 0 0.699225
0.125 0 0.760375 0.625 1.75231e-18 0.451 -0.125 -6.31089e-30 0.760759 -0.625
-3.24651e-18 0.45203 0.4375 -1.27166e-18 0.636338 -0.4375 -3.18222e-18 0.637551 0.75 -1.59252e-18
0.203961 -0.75 -3.38897e-18 0.204465 0.1875 -2.65116e-18 0.760279 -0.1875 0 0.76087
0.6875 4.68344e-19 0.389213 -0.6875 1.91147e-18 0.390167 0.375 0 0.698181 -0.375
1.91584e-18 0.699345 0.75 0 0.2657 -0.75 -5.04871e-29 0.266377 0.25 1.57772e-30
0.760201 -0.25 6.31089e-30 0.760991 0.5625 0 0.574508 -0.5625 0 0.57579
0.625 0 0.51275 -0.625 0 0.513942 0.5 0 0.63629 -0.5
0 0.637631 -0.8125 0 0 0.8125 -3.15544e-30 0 -0.8125 -2.65391e-19
0.01875 0.8125 -2.54486e-18 0.01875 0.8125 -3.15544e-30 0.0804832 -0.8125 0 0.080659
0.75 0 0.327439 -0.75 0 0.328293 0.308355 0 0.760081 0.3125
0 0.760072 0.6875 6.31089e-30 0.450962 1.8335e-11 -6.31089e-30 0.822406 -0.3125 -2.82488e-18
0.761121 -0.6875 0 0.452083 0.4375 0 0.698104 0.0625 6.31089e-30 0.822327
0.8125 2.65865e-18 0.142217 -0.0625 -6.31089e-30 0.822503 -0.8125 -1.243e-18 0.142571 -0.4375
0 0.699469 0.3125 -9.86076e-32 0.768058 0.125 -2.30523e-18 0.822198 -0.125 2.23709e-18
0.822616 0.8125 0 0.20395 -0.8125 1.00974e-28 0.204487 0.1875 3.15544e-30 0.822087
-0.1875 0 0.822743 0.75 0 0.389179 -0.75 0 0.390213 0.375
-1.57772e-30 0.759961 -0.375 0 0.761257 0.625 -3.56137e-19 0.5745 0.5625 5.79545e-20
0.63626 -0.625 3.27226e-18 0.575858 -0.5625 2.77466e-18 0.637702 0.8125 0 0.265684
-0.8125 0 0.266417 0.6875 0 0.512713 -0.6875 8.28782e-19 0.514003 0.5
0 0.698047 0.25 0 0.821997 -0.5 6.31089e-30 0.699537 -0.25 -1.344e-19
0.822881 -0.875 0 0 0.875 0 0 0.75 -2.10549e-18 0.45092
-0.875 0 0.01875 0.875 0 0.01875 -0.75 1.56797e-20 0.452151 0.8125
0 0.327419 -0.8125 -1.00974e-28 0.32834 0.4375 0 0.759871 -0.4375 -6.31089e-30
0.761365 0.875 5.04368e-19 0.0804812 -0.875 -2.51369e-18 0.080669 0.3125 0 0.821875
-0.3125 0 0.823027 2.47722e-11 -1.26218e-29 0.88424 0.0625 -1.66421e-18 0.884149 0.875
0 0.142212 0.33235 7.88861e-31 0.821834 -0.875 0 0.142591 -0.0625 2.92278e-18
0.884351 0.625 6.31089e-30 0.63625 0.125 0 0.884028 -0.625 0 0.637779
-0.125 1.26218e-29 0.88448 0.6875 0 0.574467 0.5625 6.31089e-30 0.698012 -0.6875
2.52435e-29 0.575948 -0.5625 0 0.699618 0.875 2.58384e-20 0.203944 -0.875 9.09699e-19
0.204515 0.8125 0 0.389154 -0.8125 3.37331e-18 0.390268 0.375 1.97423e-18 0.821747
0.1875 -1.85962e-18 0.8839 -0.1875 2.49188e-18 0.884624 -0.375 -1.97905e-18 0.82318 0.75
6.31089e-30 0.512662 -0.75 0 0.514078 0.5 0 0.759805 -0.5 0
0.761448 0.875 -6.31089e-30 0.265675 -0.875 0 0.266443 0.25 0 0.883795
-0.25 0 0.88478 0.8125 0 0.450889 -0.8125 0 0.452199 0.4375
3.15544e-30 0.821642 -0.4375 1.26218e-29 0.823271 0.875 -9.20802e-19 0.327407 -0.875 9.03125e-19
0.328375 0.6875 0 0.636224 0.625 -2.7446e-18 0.698 0.3125 -2.49404e-18 0.883686
-0.9375 4.03897e-28 0 0.9375 0 0 -0.9375 -1.92536e-18 0.01875 0.9375
4.53743e-19 0.01875 -0.6875 -3.21362e-18 0.637874 -0.625 1.90886e-19 0.699706 -0.3125 8.78757e-19
0.884945 0.9375 0 0.0804805 -0.9375 4.03897e-28 0.0806755 0.75 -1.26218e-29 0.574406
0.5625 1.00038e-18 0.759764 -0.75 0 0.576008 3.4849e-11 2.81091e-18 0.946078 -0.5625
-2.18181e-18 0.761541 0.0625 0 0.945974 0.9375 1.49422e-18 0.142211 -0.0625 -1.26218e-29
0.946205 -0.9375 1.98124e-18 0.142604 0.358506 3.9443e-31 0.883577 0.125 -1.04263e-18 0.945865
-0.125 2.57769e-18 0.946353 0.875 0 0.389138 -0.875 0 0.39031 0.9375
0 0.203942 -0.9375 4.03897e-28 0.204536 0.375 7.88861e-31 0.883538 0.8125 -2.70638e-18
[...]
POINT_DATA 9400
FIELD attributes 1
p 1 9400 float
2.0434 2.04275 2.20393 1.87817 2.20329 1.8775 2.04501 1.87965 2.20564 2.36002 1.70802
2.3594 1.70732 2.05401 1.7093 2.36182 1.62343 1.88833 2.21488 1.62271 2.5117
1.53294 1.58298 2.51111 1.5322 1.71757 2.37122 1.53397 2.5136 2.06785 1.90163
2.22914 1.55533 1.54176 2.52313 1.73022 2.38575 2.65888 1.3531 2.65834 1.35231
1.54742 1.35384 2.66096 2.08674 1.91975 2.24864 1.55368 2.53782 1.54008 1.36109
2.6706 1.74745 2.4057 2.8014 1.16869 2.80091 1.16786 1.16914 1.37219 2.80364
2.68542 1.5699 2.55808 2.11104 1.53531 1.94307 2.27376 1.17579 2.8134 1.76965
2.43146 1.38729 2.70589 1.18596 2.82833 2.9391 0.979923 2.93865 0.97905 1.59084
2.58432 0.980054 2.94151 1.53675 2.1421 1.97295 2.30579 0.986042 2.9514 1.7982
2.46427 1.19982 2.84898 1.40682 2.73247 0.995201 2.96641 1.6179 2.61771 3.07189
0.787029 3.07148 0.786118 1.54159 0.786835 3.0745 2.17903 1.21781 2.8758 2.00855
2.34383 1.00772 2.98718 0.792111 3.08452 1.43221 2.76627 1.83226 2.50317 0.80018
3.09959 1.65023 2.65723 1.02403 3.01416 1.24135 2.90986 3.19963 0.590329 3.19928
0.589374 1.54542 0.589775 3.20241 0.811253 3.12043 2.22015 1.4626 2.80621 2.04818
2.38619 0.594285 3.21249 1.87016 2.54649 0.601199 3.22767 1.04557 3.04838 1.68616
0.825784 2.70126 3.14749 1.26959 2.95006 3.32211 0.390139 3.32183 0.389131 1.54386
0.610747 3.24858 0.389191 3.325 1.49633 2.85071 2.26761 2.09398 2.435 0.3929
3.33507 0.845191 3.18174 1.07147 3.08869 1.91402 2.59637 0.623392 3.27555 0.398609
3.35041 1.30088 2.99486 1.72781 2.75193 0.406575 3.37144 3.4392 0.186881 3.439
0.185823 1.53723 1.53549 2.90192 1.53668 0.868564 3.22203 0.185539 3.44222 0.640532
3.30969 1.10008 3.13361 2.32332 2.1479 2.49217 0.188426 3.45222 1.96583 2.65468
0.41725 3.39818 1.33727 3.0464 0.192893 3.46777 1.77719 2.81107 0.661215 3.34991
0.894263 3.26693 0.199215 3.48896 1.58211 0.432003 2.96163 3.43204 1.13344 3.18532
3.55054 -0.0189392 3.55049 -0.0200485 1.53115 -0.0206877 3.55384 2.38698 2.20966 2.55738
-0.0186491 3.56373 0.207828 3.51537 1.3808 2.0253 3.10643 2.72107 0.683812 3.39471
-0.0154679 3.57948 0.449847 3.47216 0.924321 3.31864 1.83401 2.8783 0.220072 3.54883
-0.0108584 3.60092 1.17356 3.24546 1.63593 3.02937 3.65511 -0.226877 3.65533 -0.228035
-0.229034 3.65901 1.52037 2.45804 0.469152 -0.00440407 0.71032 3.62699 3.51682 3.44624
2.27869 2.63009 -0.227869 3.66884 1.43122 3.17442 2.09187 0.234923 2.79502 3.58885
0.960744 3.37871 -0.226023 3.68484 1.8977 2.95307 0.00519292 3.66001 1.22024 3.31343
-0.223203 3.70665 1.69635 3.10462 0.491883 3.56799 0.250747 3.63338 0.742737 3.50606
3.75266 -0.436519 3.75323 -0.437722 -0.439083 3.75713 -0.219008 3.73235 1.5018 1.48798
0.0168727 2.53724 3.24984 3.69998 1.00331 2.35573 -0.438809 2.71102 3.76681 3.44647
1.49623 2.1663 2.87724 -0.438331 3.78402 1.96903 3.03617 -0.212197 3.76494 1.27289
3.38872 0.269469 0.520008 3.68398 3.6274 -0.437355 3.80679 0.0290114 3.7443 0.780838
1.76414 3.5735 3.18819 3.84695 -0.647408 -0.20387 3.84778 -0.648656 3.80497 -0.435511
3.83097 1.05143 3.52137 -0.650386 3.85012 1.55178 3.33351 2.62518 2.44137 -0.65101
1.48205 3.85846 2.80079 0.29302 2.24914 3.74274 2.96838 0.0434832 0.553299 3.79414
3.69445 -0.651901 3.87978 -0.431618 3.86214 1.3322 2.04854 3.12823 3.47216 -0.195616
3.84903 0.824042 3.64792 -0.652793 3.90523 1.83978 3.28074 -0.426791 3.90328 1.10577
3.60431 -0.653387 3.92458 0.0621682 0.321159 1.62307 3.94492 -0.858897 3.94517 -0.860199
3.85208 3.8093 3.42612 -0.862312 3.94285 -0.18563 0.591176 3.89785 2.72093 3.76831
2.53466 -0.863843 2.89848 3.94826 1.45781 2.33948 3.06748 -0.652532 3.95112 -0.866129
3.97552 1.39857 -0.422593 3.56448 3.94799 0.872967 3.73017 2.13532 3.22825 -0.868951
4.00447 1.9224 3.38118 0.0848133 3.91806 -0.172099 0.353293 -0.651345 3.95493 3.99635
3.88251 1.16667 3.69606 1.43753 -0.872077 4.01744 -0.417308 0.63422 1.70094 3.99472
3.52653 3.84968 4.04495 -1.07037 4.04228 -1.07173 -1.07423 4.02291 2.82336 2.63459
3.00285 -1.0767 4.04416 -0.651379 4.04507 0.927856 -0.874385 2.43635 4.03764 3.17323
3.82114 1.47109 3.66446 1.43536 -1.08045 4.05556 -0.155295 0.110805 2.22852 3.33484
4.02036 3.99042 -0.409198 0.389958 4.05 3.96277 -1.0853 4.09631 2.0112 3.48808
-0.877002 4.0886 1.2332 3.79533 -0.651008 0.682574 4.08686 3.93966 -1.09107 4.09646
1.78468 3.63326 -1.28152 -1.28293 -1.28581 -0.135838 -0.881462 4.09174 0.987772 4.14363
2.93583 -0.398547 3.91946 0.140614 2.7445 3.11723 -1.28925 4.11571 4.06941 -1.09669
4.13439 1.54913 3.77059 2.5431 3.28895 -0.64857 -1.29455 0.431216 4.13641 4.05154
2.33143 1.42762 3.45131 -1.30154 -1.10329 4.16897 1.30479 2.1095 3.60471 -0.886215
0.735258 3.90055 4.17882 4.03688 -1.31007 -0.385985 -0.113338 1.87759 4.18675 4.16926
3.74951 -0.644349 0.174222 4.20456 4.15689 -1.11236 1.05219 4.23526 4.23341 -1.49225
-1.49369 4.22515 4.02352 -1.49695 -1.31913 3.062 1.63591 -0.889677 0.476044 2.86813
3.24529 -1.5014 4.21893 3.88611 4.14757 4.23016 2.66347 3.41826 -1.5083 2.44783
3.5812 1.44191 -1.12242 0.791779 4.25689 -1.32985 1.38462 -0.371237 4.13961 -1.51749
4.01498 4.26199 4.26205 2.22105 -0.0879131 -0.639016 3.73454 4.27796 4.25547 0.21057
-0.89214 4.28975 4.25168 -1.52888 1.98338 3.87876 -1.34367 1.12421 4.13653 0.523958
-1.13198 4.3103 4.2489 -1.70234 -1.70381 -1.70746 -1.54145 1.73513 4.01439 4.32407
3.20208 3.00574 3.38712 -1.71294 2.79785 -0.354511 -0.632405 3.56112 4.3488 4.3462
-1.72145 -0.0606446 -0.894339 0.855148 2.5782 -1.35918 4.36735 4.349 3.72433 4.2509
1.49054 -1.55636 1.47632 4.1419 -1.73286 2.34644 0.249182 -1.14136 3.87726 4.36235
4.35149 -1.74712 2.10274 4.02059 1.20738 -1.575 0.577872 -1.37499 4.26173 4.40286
4.35822 -0.624785 4.42804 -0.33687 -0.896188 4.4326 4.43907 -1.76323 1.54397 4.39878
-1.91138 -1.91288 1.84749 4.39 4.1549 -1.91693 -0.0320009 3.35583 -1.15132 3.15717
3.54239 4.44937 4.44712 -1.92343 4.36649 2.9461 3.71709 0.928835 -1.59604 4.37408
-1.93355 2.72242 1.58068 3.88019 -1.78233 1.57666 0.292871 -1.39144 4.28068 4.4586
-1.94719 2.48567 4.03231 4.42246 -0.617219 -0.898012 4.50464 4.52248 0.641148 -1.96431
-1.61816 1.30255 2.23579 -1.8058 -0.318797 -1.16186 4.47907 4.17436 4.3984 4.50128
4.53605 4.48957 0.000733679 -1.4093 4.55184 -1.98395 1.97323 4.30691 -2.11891 -2.12043
4.4588 -2.12488 3.52445 1.01374 3.32364 3.71227 -1.83237 -2.1324 4.50845 3.10951
0.344839 3.88731 -1.64174 4.57687 -2.14412 1.69816 1.69176 -2.00721 2.8818 4.43044
-0.900911 4.04992 4.60258 -0.610239 -1.17343 4.58766 4.62116 -2.15998 2.64019 4.20086
-0.297723 -1.4287 4.63764 0.714808 -1.86079 4.61096 1.41059 -2.03546 -2.17994 4.54561
2.38432 4.34123 0.0405609 4.55688 -1.6676 4.66748 4.59843 2.11457 -2.20307 4.47154
1.11114 -2.32442 -2.32598 -0.905476 -2.06751 -1.18714 0.406269 4.65286 -1.8915 -2.33082
4.67187 4.70547 4.70607 3.70922 3.50653 -0.601466 3.89798 -1.45019 -2.33936 4.71703
3.28968 4.07293 1.83133 1.82529 -2.23044 4.59235 -2.35268 3.05843 -0.270859 4.23454
-1.69594 4.74987 -2.37071 0.800466 2.81258 -2.10219 4.38394 4.75241 1.53419 0.0888085
-2.26338 4.6165 -1.92535 4.7045 4.79377 2.55119 -2.39346 4.5221 -1.2036 -0.90952
4.78257 -1.47494 4.79334 2.27434 -2.41999 -0.588297 0.479048 -1.72743 4.6496 1.22363
-2.13996 4.82208 -2.30081 4.84436 4.80842 4.74943 -2.52738 -2.52896 -2.53418 3.91124
3.70748 -0.236747 4.10022 -1.96265 -2.54375 1.98249 4.8736 3.48883 1.97095 -2.45136
4.27452 4.76723 -2.55865 3.25486 4.4346 0.900404 -2.34165 4.90432 0.147551 3.00511
-2.57881 -2.18174 -1.22083 -1.50356 4.58189 4.92851 1.67508 4.85655 -2.48888 -0.910602
4.87587 -1.76329 4.74336 4.88679 2.73824 -2.60425 4.71723 -0.569202 -2.00415 4.94525
0.56497 -2.38637 1.35213 2.45364 4.99238 -2.63407 -2.53156 4.84131 4.97593 -0.193205
-2.22794 5.00509 4.6569 -2.72742 -2.72902 4.65064 -2.73464 4.13293 3.92936 2.15196
4.32066 2.12401 -2.66931 -1.53428 -2.7452 3.70965 4.95517 -1.23663 4.493 -1.80423
4.95893 1.0147 1.01474 -2.76164 3.47304 0.217963 -2.57841 4.65081 4.9214 5.06767
-0.907199 -2.43596 -2.05116 5.07242 5.01085 3.21886 -2.78384 1.8331 1.83312 4.79527
-2.71126 5.0597 -0.542013 4.68861 -2.27941 5.07638 2.94596 -2.81184 4.92704 4.86374
0.663422 0.663471 -2.62994 5.15139 1.49638 1.4964 1.49627 -0.139694 2.65283 -2.75901
-2.49093 5.15538 -2.84478 5.14428 5.04704 -1.56516 -1.84865 -1.24949 -2.10443 5.06675
-2.92408 -2.92572 2.34031 -2.9317 -0.897297 4.3776 4.17481 -2.88371 -2.33748 4.56272
5.15645 0.298861 0.298916 1.14306 -2.94321 5.14471 3.95376 -2.68716 4.73137 -2.8117
5.22704 5.24255 3.71384 -2.9611 4.22094 4.88547 -0.506801 -2.5522 2.00904 3.45464
5.20926 -2.98522 -2.92987 4.02222 5.25617 5.0259 -1.89484 0.774211 3.17542 4.79982
-3.01561 -1.59473 -2.16261 5.1532 -2.86985 5.3216 -0.0778828 -0.077829 5.10198 -2.7507
1.65789 5.29373 -1.2576 -2.40299 -2.98247 5.34674 2.87395 -3.05148 5.20696 5.2684
5.04497 -0.881517 -0.881508 -2.62114 5.26984 0.39028 2.55015 -3.11673 -3.11839 1.28742
-2.93448 -3.0939 5.37259 -3.12469 5.39243 4.59251 4.64639 4.44449 4.82857 -3.04076
5.42864 4.66293 -3.13706 4.22204 4.22172 4.22234 -0.465602 -0.46559 -0.465905 4.99269
-2.82156 5.35079 3.97873 -3.15629 -1.94144 5.1414 -2.22417 2.20545 4.89209 -1.62142
-2.47479 -3.14406 3.7144 5.46669 -3.18219 5.27594 0.899298 -1.26209 -1.26209 -0.0075696
-2.69865 -3.10529 5.50239 3.42881 -3.00632 5.4543 -3.21481 5.39745 5.31864 1.83943
-3.20127 5.55129 -0.862209 -2.90111 3.11988 5.40169 -3.25344 5.50686 0.494142 -3.17706
-2.28793 5.56771 1.45066 1.45069 2.78477 1.45067 -0.41803 -1.98711 -2.55164 -3.29914
5.6049 -3.2649 -3.08646 -3.30487 5.62698 -3.30654 5.50855 -3.31314 4.93933 2.62233
4.73921 4.72908 -1.64682 -1.64684 5.11805 5.30821 -2.7838 4.51672 5.22665 -3.32629
4.98484 5.19753 5.27766 4.27113 -3.34672 2.42591 2.42591 2.42591 5.30468 5.42016
-1.26556 -3.3531 -2.99031 5.69244 4.00178 0.0729984 1.04154 1.04156 1.04156 -3.37426
5.54721 5.45849 -3.25687 -3.33552 5.62443 5.69442 3.70986 -0.83895 -3.40896 5.66114
2.04346 2.04346 2.04346 4.88969 -3.17629 5.56017 -3.41471 5.77019 5.53348 -2.35276
-2.63256 3.393 -2.03381 -2.03383 -3.45018 -2.87569 5.76314 0.612931 0.612955 0.612958
-0.362535 -3.41411 5.75332 -1.67378 -3.34593 1.63626 1.63626 1.63626 -3.08841 5.67633
3.0483 -3.48341 5.83888 -3.49898 5.85379 4.86787 -3.48812 -3.48978 4.86385 -3.49661
-1.26781 5.25856 5.10408 5.06114 5.43246 -3.27676 4.83927 -3.51045 5.58649 5.60627
2.67537 4.59329 0.165836 0.165858 0.16586 -3.53199 5.72212 -3.55652 5.93372 1.20477
-3.50153 5.80323 5.78229 4.32152 -3.55981 5.89914 -0.810513 -3.56102 -2.71649 5.84108
-2.42093 -2.42097 -3.44558 -2.97353 5.72866 4.89377 4.02421 -2.08467 2.27514 5.88425
-3.19486 5.40649 -3.59765 5.94596 -3.62229 6.00381 5.55796 -1.70235 0.750295 3.69897
-0.297916 -0.29791 -0.297924 -0.297908 -3.3873 6.03845 -3.64128 -3.64488 5.95075 -3.59905
5.84678 1.84699 -1.26802 -3.69579 6.06474 3.34323 -3.55679 6.11984 -3.69299 5.77291
-3.66604 -3.66769 5.40776 5.40719 -3.67471 -2.80598 -2.80603 5.60342 -3.07628 5.77226
0.274306 5.1892 -3.68916 -2.4959 6.13843 5.92063 -3.30914 2.95604 -3.7395 5.24053
5.9928 1.39094 -0.77599 4.94551 6.19098 -3.75389 -3.71165 6.04812 -3.70801 -3.77764
-2.14013 6.11703 5.88801 -3.50768 4.67493 -3.74203 6.15824 4.98915 2.53725 -1.73227
4.37389 -3.6792 6.25316 6.25233 -3.82355 -3.78041 6.27526 -0.22126 0.908057 -3.845
6.02554 -3.86881 4.04062 6.16053 6.33456 -3.82628 -1.26588 2.08654 -3.18668 -3.18718
-3.82938 -2.90491 -3.43028 -3.90157 6.30439 5.91915 3.67379 6.39559 -2.57851 -3.63775
6.40479 -3.88068 5.62403 0.400005 5.96977 -3.83803 5.97155 -3.83968 -2.20051 6.13146
-0.733876 6.13404 5.78714 6.13461 -3.9702 -3.84687 6.19507 -3.81282 5.5757 -3.9627
3.27203 1.60382 -3.86183 6.05278 6.27843 5.83548 6.46526 -3.94471 -3.98853 6.34769
5.33568 -3.88515 6.39749 -1.76394 5.0656 -3.96301 -3.91674 6.49893 2.83414 -0.131101
4.76218 6.51636 -4.01802 -3.30907 -3.56102 -3.56162 6.58288 -3.95675 1.08988 -4.08316
6.22185 -3.01451 -3.7766 -4.08539 -1.26034 6.3822 -4.09364 4.42228 -2.6696 6.65257
-4.00469 6.08348 -3.95785 2.35952 6.5582 -4.10024 5.16098 4.04479 -2.26689 6.70133
6.71021 -4.10907 6.71109 -4.0616 0.546346 -0.682462 -4.19309 6.40881 -4.20903 6.24458
-4.00348 6.37982 -4.00515 1.84802 6.53098 6.20428 -4.01247 3.62844 6.65662 -1.79691
6.65902 6.0006 6.59103 -4.19194 -4.02783 6.75791 -4.12857 -4.23778 -3.70606 6.76333
6.76718 5.76591 6.76772 -3.44513 -4.05189 -3.92685 -3.13614 5.4978 -4.11352 -4.0846
6.86084 -0.0245073 3.17113 6.83371 -4.31298 6.43015 6.79673 1.30016 -4.20527 -1.25051
-2.77099 5.19359 5.89226 6.93361 -4.34885 -4.12615 -4.26812 6.61561 -4.29408 6.26431
5.56206 4.84918 2.67151 6.99239 -2.33949 -4.17607 -4.39539 6.82674 -4.29137 6.13331
-0.619576 0.717391 4.46191 -4.44639 7.0367 6.4489 -4.23535 6.63268 -4.40761 -3.86758
-4.09299 -4.09342 -4.09352 -3.59665 -1.83093 -4.28218 2.12912 -4.50273 5.05163 -4.16214
6.82515 -4.16387 6.84815 4.03106 -4.38744 -3.27234 6.9631 6.66065 5.04736 -4.17123
-4.43957 7.06986 7.07699 6.46652 -4.30505 -4.18681 7.16999 6.23937 -4.21159 0.102044
-2.88374 -1.23487 7.24043 -4.56736 7.24391 5.97597 -4.53386 6.64391 3.55427 -4.24538
1.54422 -4.59435 7.09192 7.09405 -4.3849 7.0968 6.4596 6.86188 -4.49443 7.29722
7.30254 5.67309 7.3029 5.04255 -4.2884 -2.41894 -4.67093 -4.27901 5.32704 3.02897
-4.04784 -4.46889 5.38765 -4.47061 7.3509 -4.34019 7.11021 -4.47457 -0.542441 -3.76685
-4.6254 0.918049 -4.67415 6.65012 4.93212 -1.86543 6.86812 -4.6133 -3.425 7.38209
-4.40169 -4.75712 -4.75346 2.45384 7.11933 -4.57464 6.16099 4.48723 -4.31354 7.30872
-4.31535 -3.00935 7.23447 7.43131 7.15839 -4.32272 7.40184 -4.47393 -4.85467 7.52913
6.9769 -4.33853 0.252893 -1.21161 7.60492 6.76037 6.8669 -4.74535 -4.36411 -4.82948
6.64962 1.82877 3.99096 5.156 7.66129 6.5049 -4.48628 -4.67678 -4.39897 -2.50572
7.40973 7.12124 -4.55664 -4.68604 -4.25073 -4.83064 -4.8314 -4.93496 7.70158 6.20645
6.46072 -4.44337 -3.9584 -4.95515 3.43957 -0.447584 7.72311 7.72735 5.86096 7.41004
-4.64957 -4.49691 -4.89182 -3.59652 1.15476 -1.89982 -4.96107 6.86014 -5.05412 7.11626
-5.00026 -4.80975 7.40754 7.7363 5.46222 7.74229 7.74236 -4.56048 2.8302 -3.14944
-5.12923 7.4047 -4.75324 5.00598 -4.90885 -4.71972 -5.14099 -5.05885 -1.17842 0.433888
7.75021 -4.45698 7.83317 -4.45876 -4.63502 7.93705 7.70063 -4.46631 -5.05378 -4.4795
7.10589 8.01556 7.53555 -4.94702 -4.48281 -5.17716 6.85106 -2.60054 8.07175 7.33348
-4.5093 2.16201 -5.18676 4.49078 5.96124 -4.17445 7.3933 -4.86859 -5.27024 8.10862
7.08989 7.74273 -4.7203 -4.5452 7.53409 8.12886 6.79997 -3.78966 -4.59089 -0.330156
-5.34061 3.91298 -1.9332 5.28257 -5.09903 7.09164 7.7279 1.43549 8.13469 6.45838
-5.23167 -4.8161 6.46482 -4.64602 -5.40256 7.37642 -4.99661 -5.17016 -3.30615 -5.31338
-5.39034 -4.98311 8.1292 6.0596 -5.42356 5.65822 -4.71145 3.26828 7.70577 -4.73801
-4.923 -5.50727 -1.13181 0.652353 5.59614 8.10808 8.11295 -5.26682 7.0755 7.35739
-2.70409 -4.78801 -5.13853 7.69151 -4.41906 -4.59263 8.40104 -4.59428 8.48233 8.29046
-4.6022 -5.56974 -5.42583 8.53794 8.14624 6.83019 -4.61968 2.55427 8.57122 7.96332
7.67848 8.08081 5.06362 -4.64703 -5.04184 8.08896 8.08852 -4.00815 -5.6503 -4.87552
8.58545 7.73647 -4.68387 -5.61217 7.71448 -0.183856 -1.96372 -5.59967 8.58351 7.46011
-5.46492 -5.698 -4.73073 -5.29543 -5.45092 7.33434 4.45957 1.77046 -5.28086 8.06191
-5.76964 -4.97385 -3.48202 7.64742 8.56774 7.12781 -5.17363 -5.63751 -4.78728 -5.03133
-5.82005 8.5402 6.73276 3.77919 -4.8543 -1.06705 8.02349 -5.08354 -4.69764 -5.46826
0.917904 -2.81665 -5.85282 7.30085 7.61442 -5.65172 -5.3196 8.5026 6.2685 -5.88892
-4.9326 -4.72125 9.0152 -4.72278 9.06952 8.93141 -4.73101 3.0176 -4.25648 9.09831
8.81321 -5.92219 -6.00606 -4.74923 7.97864 -5.86834 -5.20542 5.72293 -5.79796 5.49749
9.10506 8.65492 -6.06133 8.45832 -4.77723 6.80258 -5.02204 -1.98882 9.0933 8.45071
-5.61874 -0.000152942 -5.80654 -6.09613 -4.8149 -5.83809 -5.65765 -5.64922 -5.48073 7.57571
-3.67969 9.06618 8.19412 2.17208 5.09307 8.40085 -5.95308 -4.86279 7.93707 -5.3663
-5.87037 8.40925 8.40784 -6.11465 7.93103 -5.12253 -5.34048 -5.79168 7.94857 9.02601
7.87746 -4.92055 -5.77054 -5.01654 -5.59739 -6.11888 -6.11912 -6.12095 -0.977437 4.37698
8.97479 7.49232 -2.93833 -4.98893 8.35484 -5.65789 7.53368 -5.23462 1.24268 -5.86415
-6.35228 7.229 -6.28596 -6.38786 7.88042 -5.48992 -6.1757 -4.53986 8.9147 7.03151
-6.40236 -6.10869 -5.06867 -5.80277 3.56673 -6.00483 -4.84296 9.67808 -4.84442 -6.25413
9.70056 9.62664 -4.85281 -6.40224 8.29244 -5.79544 -5.3591 9.69824 9.54045 -4.87146
6.44692 6.48124 -2.00444 8.84819 9.67447 9.41306 0.231996 -4.89992 -5.15968 -5.85179
5.98658 -5.75051 -3.90247 7.82319 -5.65467 9.63299 9.23849 -6.39057 -4.93826 -6.08874
2.65587 9.57741 9.00938 5.8323 -5.945 8.2285 8.77659 -4.98699 -5.49694 -5.26195
-5.38335 -6.36747 -6.74179 -6.75369 9.51001 8.71628 -5.04572 -6.6978 -6.74415 -0.85389
-3.06855 -5.83141 8.68583 -5.83017 5.08142 -5.83555 7.76443 -6.06313 -6.60714 8.69897
-6.72033 9.43259 8.34911 1.64226 8.16897 -5.37599 -5.11518 -4.86497 8.16245 -5.64927
-6.33316 -6.44909 8.18688 -6.68767 7.15755 9.34744 7.89863 8.5944 -5.19604 4.22086
8.61752 8.6137 -2.00466 -6.19519 -5.50253 -4.95734 10.3921 -4.95874 10.3771 10.3792
-4.96723 -6.64756 0.527084 10.3392 10.3322 -4.15391 -6.03328 -4.98614 9.25686 7.35309
5.71336 -6.29283 10.2804 10.2427 8.09206 -5.28827 -5.81694 -6.37629 -5.82159 -5.01493
-5.82189 -7.16394 -7.1815 -7.12577 10.2052 10.1065 -7.13099 -5.05379 3.24199 -5.80832
-7.16713 -5.07165 -7.07422 -5.05928 -5.09499 -6.5988 8.53807 6.69477 -5.14079 -5.64254
-5.03491 9.1618 10.1175 9.9139 -5.10315 -5.19636 -5.39192 -5.02171 -7.10338 -7.01515
-5.26145 -3.20568 -0.68428 -5.76414 10.02 9.65475 -5.72359 -5.3351 -5.01883 -5.16262
-6.24861 7.6525 8.02947 -6.00074 -5.24005 -5.41618 5.91339 -6.96357 2.13786 9.06211
-5.48834 -5.68259 -6.95248 -6.54238 -5.5034 -5.02412 -5.02548 9.91348 9.31563 -5.59295
-5.50746 8.45743 -5.79713 -5.2329 -6.71316 9.80056 8.88784 -6.88635 5.0022 -5.31458
-1.98103 -7.62532 -7.55203 8.95933 -4.43759 -7.68079 -7.46794 -5.63558 -6.20141 0.905835
8.38571 -6.4824 -5.064 11.1587 -7.67176 -5.06534 11.0985 11.1897 -5.07387 8.37299
-7.70556 -5.96705 -7.37831 9.6835 11.0207 11.1892 8.35693 -5.09299 -6.30446 -5.40772
10.9223 11.1448 -5.12204 -6.8137 8.83436 8.41381 -7.6776 3.95335 10.8099 11.0584
-7.28749 8.85721 -5.1613 8.84981 -5.77724 9.56381 7.70216 10.6848 10.9112 -3.34657
-7.49327 -5.5124 -5.21112 -0.45008 -7.56392 -6.41968 -5.67477 -7.19817 8.2822 -6.15304
10.5547 10.6973 -6.73583 -5.27114 7.55263 2.75373 6.90122 -7.71408 9.44092 8.75855
-8.02925 -5.93354 -5.62906 -8.14681 -7.9059 10.4162 10.3968 -7.32164 -5.34199 -7.10735
-8.25121 -7.78102 -8.01444 -8.29216 -1.9191 -4.75745 -8.32701 10.2734 10.0076 5.94586
-7.65779 -8.22363 9.31593 -6.35588 -5.42422 6.39195 -6.65642 1.39276 -5.75835 -6.88787
8.65639 -6.10514 -8.34675 -7.01097 5.30829 -5.16296 11.9752 -5.16424 -7.53914 11.7475
11.93 -5.17281 10.1264 9.50264 5.30532 11.7408 12.1087 -5.19206 -5.51795 11.4989
11.9713 4.82748 -5.22128 7.00775 9.191 -8.27055 11.4451 12.0914 -5.90124 -3.48319
-5.26078 -7.42405 9.98055 8.86198 -0.128271 -6.18143 8.10341 -6.57634 8.54969 -8.5657
-8.3938 -5.62333 11.188 11.844 5.99853 8.56297 -6.91263 -5.31086 -8.73942 -6.29275
-8.22699 9.03305 8.43697 -8.90672 11.1129 11.8423 -8.06638 3.52946 -8.04284 -5.37121
9.0679 -7.30853 9.83235 8.05704 8.05738 8.05709 9.05604 -6.05877 -5.74075 -9.0491
10.8623 -7.91268 11.4169 -5.44237 -5.11465 -1.80098 -6.81528 -8.33044 -6.49718 7.07556
-9.13375 -7.57986 10.7651 11.2594 9.68353 -7.76789 2.02752 -5.52485 -7.19029 -5.8708
8.94633 -6.23153 10.5153 -5.25411 10.6152 -5.25536 -8.93897 -9.1111 -5.26393 -9.17146
-8.72097 -5.61884 -8.29349 -7.62864 -5.28322 5.89738 -9.41639 -8.51672 -3.60591 9.53386
5.39611 -5.31248 -6.77279 -6.01446 -6.71924 0.322164 -9.6647 -7.07355 -5.35204 -8.32429
10.4119 10.1773 7.93582 8.82674 8.82588 -6.42018 -5.72456 -8.9067 -5.40216 -7.49066
-9.89556 4.49987 -8.14341 9.38262 9.38822 -5.46259 -6.17275 10.1761 9.19172 8.90884
-5.84236 -5.51141 -10.0695 -1.59144 -7.97477 -6.95969 -5.53382 -8.40605 9.20536 -9.90264
-6.6256 -7.35296 -9.55021 -9.26935 2.84852 -9.85847 10.0618 8.3969 8.39853 8.39706