# vtk DataFile Version 2.0
sampleSurface
ASCII
DATASET POLYDATA
POINTS 9400 float
2.60369e-12 7.88861e-31 0 2.60369e-12 7.88861e-31 0.01875 -0.0625 0 0 0.0625 0
0 -0.0625 2.04574e-18 0.01875 0.0625 2.27264e-18 0.01875 2.45838e-12 -7.88861e-31 0.0805546
0.0625 0 0.080548 -0.0625 0 0.0805619 -0.125 0 0 0.125
0 0 -0.125 0 0.01875 0.125 0 0.01875 2.44092e-12 0
0.142361 0.125 -2.36236e-18 0.080537 -0.125 -1.99734e-18 0.0805727 0.155198 9.86076e-32 0
0.0625 2.25713e-18 0.142348 -0.0625 6.58074e-19 0.142376 0.155198 9.86076e-32 0.01875 -0.1875
0 0 0.1875 -1.97215e-31 0 0.17003 9.86076e-32 0.0805311 -0.1875 6.18262e-19
0.01875 0.1875 1.13376e-18 0.01875 0.125 0 0.142327 -0.125 -1.57772e-30 0.142397
0.1875 0 0.0805288 -0.1875 1.57772e-30 0.0805786 2.55289e-12 4.58002e-19 0.20417 0.0625
0 0.204149 -0.0625 0 0.204193 0.182675 -2.46519e-32 0.142311 0.1875 -2.46519e-32
0.14231 -0.1875 3.44655e-18 0.142409 0.125 1.8947e-18 0.20412 -0.125 8.62579e-19 0.204222
-0.25 0 0 0.25 0 0 -0.25 0 0.01875 0.25
0 0.01875 0.1875 0 0.171657 0.25 -1.85988e-18 0.0805215 -0.25 -7.89071e-19
0.0805852 2.80171e-12 0 0.265981 0.0625 -3.12196e-18 0.265952 -0.0625 0 0.266014
0.1875 0 0.204094 -0.1875 1.57772e-30 0.204241 0.192183 0 0.204092 0.25
0 0.142295 -0.25 0 0.142423 0.125 3.9443e-31 0.265926 -0.125 0
0.266049 -0.3125 1.57772e-30 0 0.3125 7.88861e-31 0 -0.3125 -2.90674e-18 0.01875
0.3125 -1.27488e-19 0.01875 0.3125 0 0.0805151 0.25 0 0.20407 -0.3125
0 0.0805924 -0.25 0 0.204262 0.1875 0 0.26588 -0.1875 5.62479e-19
0.266075 3.20058e-12 0 0.327795 0.199338 -9.86076e-32 0.265874 0.0625 0 0.327757
-0.0625 0 0.327848 0.3125 -2.71896e-18 0.142282 -0.3125 2.78209e-18 0.142437 0.125
6.9163e-19 0.327724 -0.125 2.08789e-18 0.327878 0.25 0 0.265848 -0.25 0
0.266105 0.3125 0 0.204049 -0.3125 0 0.204285 -0.375 0 0
0.375 0 0 -0.375 0 0.01875 0.375 0 0.01875 0.1875
0 0.32767 -0.1875 0 0.327912 0.375 -8.46552e-19 0.0805098 -0.375 -8.58061e-19
0.0806002 0.205871 0 0.327658 3.76968e-12 0 0.389612 0.0625 3.97291e-19 0.389565
-0.0625 2.2957e-18 0.389672 0.375 0 0.14227 -0.375 0 0.142454 0.125
0 0.389523 -0.125 0 0.389709 0.3125 0 0.265819 -0.3125 0
0.266137 0.25 -1.46378e-18 0.327628 -0.25 3.03983e-18 0.32795 0.375 0 0.204032
-0.375 2.41679e-18 0.20431 0.1875 -1.87127e-18 0.389464 -0.1875 3.73964e-19 0.389752 -0.4375
0 0 0.4375 0 0 -0.4375 1.89554e-18 0.01875 0.4375 -2.57557e-18
0.01875 0.213183 0 0.389442 0.4375 1.57772e-30 0.0805056 -0.4375 0 0.0806086
4.53883e-12 -3.03619e-18 0.451433 0.3125 0 0.32759 -0.3125 0 0.327991 0.0625
0 0.451375 -0.0625 1.57772e-30 0.451497 0.375 0 0.265795 -0.375 -1.57772e-30
0.266171 0.4375 3.41059e-18 0.142262 -0.4375 -9.03976e-19 0.142471 0.25 0 0.389411
-0.25 0 0.389799 0.125 -2.36403e-18 0.451324 -0.125 -5.90775e-19 0.451542 0.4375
0 0.204018 -0.4375 0 0.204337 0.1875 0 0.451262 -0.1875 0
0.451594 0.375 1.63705e-18 0.327558 -0.375 3.27259e-18 0.328036 0.3125 0 0.389363
-0.3125 -1.14983e-18 0.38985 -0.5 0 0 0.5 1.57772e-30 0 -0.5
0 0.01875 0.5 1.57772e-30 0.01875 0.222412 0 0.451226 0.5 2.84117e-18
0.0805025 -0.5 2.92717e-18 0.0806173 0.4375 -2.12621e-18 0.265775 -0.4375 -1.47432e-18 0.266207
5.55162e-12 1.57772e-30 0.513258 0.25 0 0.451197 -0.25 0 0.451651 0.0625
0 0.513189 -0.0625 4.3536e-19 0.513324 0.5 1.57772e-30 0.142255 -0.5 0
0.142489 0.125 0 0.513128 -0.125 0 0.513378 0.5 -1.57772e-30 0.204008
-0.5 3.15544e-30 0.204364 0.375 1.57772e-30 0.389324 -0.375 0 0.389905 0.1875
0 0.513077 0.4375 0 0.327533 -0.1875 0 0.51344 -0.4375 0
0.328082 0.3125 0 0.451139 -0.3125 3.15544e-30 0.451713 -0.5625 6.31089e-30 0
0.5625 3.15544e-30 0 -0.5625 -1.00175e-18 0.01875 0.5625 -2.39654e-18 0.01875 0.23435
0 0.513009 0.5 0 0.265761 -0.5 3.15544e-30 0.266245 0.5625 0
0.0805006 -0.5625 -6.31089e-30 0.0806264 0.25 0 0.512987 -0.25 0 0.513508
6.87235e-12 -3.15544e-30 0.5751 0.0625 0 0.575006 -0.0625 0 0.575154 0.5625
-3.18176e-18 0.142251 -0.5625 2.78172e-19 0.142507 0.4375 -3.799e-19 0.389292 -0.4375 4.15711e-19
0.389963 0.375 -3.25704e-18 0.451091 -0.375 -1.7012e-18 0.45178 0.125 3.22891e-18 0.574935
-0.125 2.76461e-18 0.575218 0.5 1.53587e-19 0.327515 -0.5 1.56796e-18 0.328131 0.5625
-3.15544e-30 0.204002 -0.5625 0 0.204393 0.3125 -3.04445e-18 0.512918 -0.3125 -1.22914e-18
0.513582 0.1875 -7.88861e-31 0.574873 -0.1875 3.15544e-30 0.57529 0.5625 0 0.265753
-0.5625 0 0.266284 -0.625 0 0 0.625 0 0 -0.625
0 0.01875 0.625 0 0.01875 0.249434 0 0.574782 0.25 -2.35481e-18
0.574782 -0.25 2.86973e-18 0.57537 0.25 0 0.576361 0.4375 0 0.451052
-0.4375 0 0.451849 0.625 -4.13928e-19 0.0805 -0.625 1.78069e-18 0.0806358 0.5
-3.15544e-30 0.389269 -0.5 0 0.390023 0.375 0 0.512859 -0.375 0
0.51366 8.59817e-12 0 0.636923 0.0625 -4.29693e-19 0.636828 -0.0625 2.53227e-18 0.636986
0.625 0 0.14225 -0.625 0 0.142527 0.125 0 0.636744 -0.125
0 0.63706 0.5625 0 0.327504 -0.5625 0 0.328182 0.3125 7.88861e-31
0.5747 -0.3125 0 0.575456 0.625 -2.48369e-18 0.204 -0.625 2.63567e-18 0.204423
0.1875 -2.99188e-18 0.636672 -0.1875 1.69459e-18 0.637144 0.5 -3.15544e-30 0.451023 -0.5
6.31089e-30 0.451922 0.4375 0 0.512812 -0.4375 0 0.513742 0.625 0
0.26575 -0.625 0 0.266325 0.25 0 0.636581 0.5625 -2.7276e-18 0.389255
-0.25 0 0.637237 -0.5625 -2.95645e-18 0.390085 0.375 -2.32583e-18 0.57463 -0.375
-1.63671e-19 0.575547 -0.6875 0 0 0.6875 0 0 -0.6875 7.54477e-19
0.01875 0.6875 2.80491e-18 0.01875 0.265822 0 0.636557 0.6875 0 0.0804911
-0.6875 2.52435e-29 0.0806455 1.08822e-11 3.25112e-18 0.698748 0.0625 -3.15544e-30 0.698655 -0.0625
0 0.698821 0.6875 0 0.142233 -0.6875 -5.02969e-19 0.142546 0.625 0
0.3275 -0.625 -2.67663e-18 0.32822 0.3125 2.79272e-18 0.636486 0.125 2.61292e-18 0.698557
-0.3125 -2.72054e-18 0.637337 -0.125 2.93961e-18 0.698907 0.5 -3.15544e-30 0.512778 -0.5
0 0.513828 0.6875 0 0.203976 -0.6875 0 0.204444 0.5625 0
0.451006 -0.5625 0 0.451996 0.4375 0 0.574574 -0.4375 0 0.575643
0.1875 0 0.698474 -0.1875 -6.31089e-30 0.699004 0.625 0 0.38925 -0.625
1.26218e-29 0.390123 0.6875 2.67855e-18 0.26572 -0.6875 3.2715e-19 0.266348 0.375 0
0.636404 -0.375 0 0.637442 0.25 -2.90235e-18 0.698407 -0.25 0 0.699111
-0.75 5.04871e-29 0 0.75 0 0 -0.75 5.04871e-29 0.01875 0.75
0 0.01875 0.75 0 0.0804865 -0.75 0 0.0806519 0.285281 3.9443e-31
0.698333 1.39788e-11 -6.31089e-30 0.760575 0.5625 -5.36693e-20 0.512757 0.6875 0 0.327466
0.5 -2.55668e-18 0.574533 -0.6875 0 0.328255 -0.5625 0 0.513884 -0.5
2.53415e-18 0.575741 0.0625 0 0.760507 -0.0625 -1.16387e-18 0.76066 0.75 0
0.142224 -0.75 0 0.142557 0.3125 0 0.698276 -0.3125 0 0.699225
0.125 0 0.760375 0.625 1.75231e-18 0.451 -0.125 -6.31089e-30 0.760759 -0.625
-3.24651e-18 0.45203 0.4375 -1.27166e-18 0.636338 -0.4375 -3.18222e-18 0.637551 0.75 -1.59252e-18
0.203961 -0.75 -3.38897e-18 0.204465 0.1875 -2.65116e-18 0.760279 -0.1875 0 0.76087
0.6875 4.68344e-19 0.389213 -0.6875 1.91147e-18 0.390167 0.375 0 0.698181 -0.375
1.91584e-18 0.699345 0.75 0 0.2657 -0.75 -5.04871e-29 0.266377 0.25 1.57772e-30
0.760201 -0.25 6.31089e-30 0.760991 0.5625 0 0.574508 -0.5625 0 0.57579
0.625 0 0.51275 -0.625 0 0.513942 0.5 0 0.63629 -0.5
0 0.637631 -0.8125 0 0 0.8125 -3.15544e-30 0 -0.8125 -2.65391e-19
0.01875 0.8125 -2.54486e-18 0.01875 0.8125 -3.15544e-30 0.0804832 -0.8125 0 0.080659
0.75 0 0.327439 -0.75 0 0.328293 0.308355 0 0.760081 0.3125
0 0.760072 0.6875 6.31089e-30 0.450962 1.8335e-11 -6.31089e-30 0.822406 -0.3125 -2.82488e-18
0.761121 -0.6875 0 0.452083 0.4375 0 0.698104 0.0625 6.31089e-30 0.822327
0.8125 2.65865e-18 0.142217 -0.0625 -6.31089e-30 0.822503 -0.8125 -1.243e-18 0.142571 -0.4375
0 0.699469 0.3125 -9.86076e-32 0.768058 0.125 -2.30523e-18 0.822198 -0.125 2.23709e-18
0.822616 0.8125 0 0.20395 -0.8125 1.00974e-28 0.204487 0.1875 3.15544e-30 0.822087
-0.1875 0 0.822743 0.75 0 0.389179 -0.75 0 0.390213 0.375
-1.57772e-30 0.759961 -0.375 0 0.761257 0.625 -3.56137e-19 0.5745 0.5625 5.79545e-20
0.63626 -0.625 3.27226e-18 0.575858 -0.5625 2.77466e-18 0.637702 0.8125 0 0.265684
-0.8125 0 0.266417 0.6875 0 0.512713 -0.6875 8.28782e-19 0.514003 0.5
0 0.698047 0.25 0 0.821997 -0.5 6.31089e-30 0.699537 -0.25 -1.344e-19
0.822881 -0.875 0 0 0.875 0 0 0.75 -2.10549e-18 0.45092
-0.875 0 0.01875 0.875 0 0.01875 -0.75 1.56797e-20 0.452151 0.8125
0 0.327419 -0.8125 -1.00974e-28 0.32834 0.4375 0 0.759871 -0.4375 -6.31089e-30
0.761365 0.875 5.04368e-19 0.0804812 -0.875 -2.51369e-18 0.080669 0.3125 0 0.821875
-0.3125 0 0.823027 2.47722e-11 -1.26218e-29 0.88424 0.0625 -1.66421e-18 0.884149 0.875
0 0.142212 0.33235 7.88861e-31 0.821834 -0.875 0 0.142591 -0.0625 2.92278e-18
0.884351 0.625 6.31089e-30 0.63625 0.125 0 0.884028 -0.625 0 0.637779
-0.125 1.26218e-29 0.88448 0.6875 0 0.574467 0.5625 6.31089e-30 0.698012 -0.6875
2.52435e-29 0.575948 -0.5625 0 0.699618 0.875 2.58384e-20 0.203944 -0.875 9.09699e-19
0.204515 0.8125 0 0.389154 -0.8125 3.37331e-18 0.390268 0.375 1.97423e-18 0.821747
0.1875 -1.85962e-18 0.8839 -0.1875 2.49188e-18 0.884624 -0.375 -1.97905e-18 0.82318 0.75
6.31089e-30 0.512662 -0.75 0 0.514078 0.5 0 0.759805 -0.5 0
0.761448 0.875 -6.31089e-30 0.265675 -0.875 0 0.266443 0.25 0 0.883795
-0.25 0 0.88478 0.8125 0 0.450889 -0.8125 0 0.452199 0.4375
3.15544e-30 0.821642 -0.4375 1.26218e-29 0.823271 0.875 -9.20802e-19 0.327407 -0.875 9.03125e-19
0.328375 0.6875 0 0.636224 0.625 -2.7446e-18 0.698 0.3125 -2.49404e-18 0.883686
-0.9375 4.03897e-28 0 0.9375 0 0 -0.9375 -1.92536e-18 0.01875 0.9375
4.53743e-19 0.01875 -0.6875 -3.21362e-18 0.637874 -0.625 1.90886e-19 0.699706 -0.3125 8.78757e-19
0.884945 0.9375 0 0.0804805 -0.9375 4.03897e-28 0.0806755 0.75 -1.26218e-29 0.574406
0.5625 1.00038e-18 0.759764 -0.75 0 0.576008 3.4849e-11 2.81091e-18 0.946078 -0.5625
-2.18181e-18 0.761541 0.0625 0 0.945974 0.9375 1.49422e-18 0.142211 -0.0625 -1.26218e-29
0.946205 -0.9375 1.98124e-18 0.142604 0.358506 3.9443e-31 0.883577 0.125 -1.04263e-18 0.945865
-0.125 2.57769e-18 0.946353 0.875 0 0.389138 -0.875 0 0.39031 0.9375
0 0.203942 -0.9375 4.03897e-28 0.204536 0.375 7.88861e-31 0.883538 0.8125 -2.70638e-18
[...]
POINT_DATA 9400
FIELD attributes 1
U 3 9400 float
20 0 0 20.1728 -4.98138e-05 -0.00524548 20 0 0 20 0
0 20.1647 -0.000101042 -0.00513925 20.1811 1.18335e-05 -0.00535031 20.1775 8.56622e-05 -0.0146091
20.1859 0.000134306 -0.0149515 20.1694 2.84188e-05 -0.0142582 20 0 0 20
0 0 20.1569 -0.000132212 -0.00502686 20.1896 5.20815e-05 -0.0054527 20.1781 0.000131019
-0.0259225 20.1945 0.000156688 -0.0152813 20.1615 -5.63621e-06 -0.0138946 20 0 0
20.1865 0.000173049 -0.0265383 20.17 7.71771e-05 -0.0252866 20.1938 5.68909e-05 -0.00549931 20
0 0 20 0 0 20.2008 0.000166253 -0.0155072 20.1493 -0.000186317
-0.00491356 20.1983 6.20355e-05 -0.00554917 20.1951 0.000198467 -0.0271303 20.1621 3.63974e-05 -0.0246331
20.2033 0.000169964 -0.0155948 20.1539 -6.80737e-05 -0.0135206 20.1779 0.000176156 -0.0374577 20.1863
0.000232041 -0.0383438 20.1697 0.000110686 -0.0365412 20.2033 0.000216357 -0.0276523 20.2039 0.000217853
-0.027696 20.1544 -3.20616e-05 -0.0239659 20.1949 0.000260189 -0.0391955 20.1618 6.93943e-05 -0.0356014
20 0 0 20 0 0 20.142 -0.000258506 -0.0048025 20.2073
0.000116036 -0.00563821 20.2039 0.000249371 -0.0335447 20.2123 0.000233108 -0.0158913 20.1465 -0.000168105
-0.0131456 20.1771 0.000233191 -0.0490165 20.1855 0.000301734 -0.0501855 20.1689 0.000157474 -0.0478094
20.2038 0.000284209 -0.0400093 20.1542 1.05413e-06 -0.0346444 20.2045 0.000289555 -0.0400673 20.213
0.000287913 -0.0282331 20.147 -0.000141357 -0.0232917 20.1942 0.000332237 -0.0513101 20.161 0.000117507
-0.0465722 20 0 0 20 0 0 20.1349 -0.000291356 -0.00468736
20.2164 0.00018028 -0.00572029 20.2215 0.000310628 -0.01617 20.2129 0.000355564 -0.0407827 20.1394
-0.00022627 -0.0127692 20.1467 -0.000104405 -0.0336742 20.2031 0.000359617 -0.0523836 20.1533 5.08313e-05
-0.045309 20.1754 0.000261157 -0.0607544 20.2048 0.000372653 -0.0525771 20.1839 0.000322315 -0.0622092
20.1671 0.000190323 -0.0592536 20.2223 0.000369715 -0.0287393 20.1399 -0.000210263 -0.0226129 20.1926
0.000354886 -0.0636091 20.1592 0.00014593 -0.0577147 20.2123 0.00042844 -0.0534054 20.1459 -5.11823e-05
-0.0440282 20.2222 0.000434513 -0.0415112 20.1396 -0.000173085 -0.0326937 20 0 0
20 0 0 20.1281 -0.000309674 -0.00456799 20.2258 0.000200113 -0.00579709 20.2016
0.000385611 -0.0649464 20.1515 7.50758e-05 -0.0561433 20.231 0.000338936 -0.0164291 20.1326 -0.000258692
-0.0123884 20.2043 0.000406477 -0.0653206 20.1737 0.000278691 -0.0724956 20.1822 0.000338219 -0.0742474
20.1653 0.000206615 -0.0706896 20.2317 0.000401463 -0.0292094 20.133 -0.000255417 -0.02193 20.191
0.000373213 -0.0759353 20.1573 0.000157646 -0.0688394 20.2216 0.000501721 -0.0543686 20.1388 -0.000118845
-0.0427392 20.2108 0.000456599 -0.0662196 20.144 -3.19711e-05 -0.0545509 20.2317 0.000465097 -0.0421878
20.1327 -0.000218069 -0.0317066 20.2001 0.000405491 -0.07755 20.1496 8.54686e-05 -0.0669542 20
0 0 20 0 0 20.1215 -0.00034579 -0.00444876 20.2353 0.000233585
-0.00586781 20.2039 0.000434332 -0.078182 20.2406 0.00037273 -0.0166667 20.126 -0.000340495 -0.0120048
20.1724 0.0003281 -0.0845874 20.2203 0.000532703 -0.0674199 20.1368 -0.000104263 -0.0529497 20.181
0.000398414 -0.0866398 20.164 0.000245055 -0.0824736 20.2312 0.000531127 -0.0552645 20.1319 -0.000161879
-0.041444 20.2414 0.000439249 -0.0296419 20.1264 -0.000362521 -0.021244 20.2094 0.000475676 -0.0790879
20.142 -2.19752e-05 -0.0650448 20.1899 0.000434588 -0.0886209 20.156 0.000195171 -0.0803098 20.2414
0.000504147 -0.0428109 20.1261 -0.000316685 -0.0307152 20.199 0.000466126 -0.0905184 20.1482 0.00012548
-0.0781067 20.2299 0.000566955 -0.0685372 20.1299 -0.00015501 -0.0513407 20.219 0.000552644 -0.0805393
20.1348 -9.48124e-05 -0.0631226 20 0 0 20 0 0 20.1151
-0.000426197 -0.00432981 20.245 0.000300898 -0.00592977 20.2042 0.000503392 -0.0915279 20.2504 0.000443461
-0.0168802 20.1196 -0.000443823 -0.0116197 20.241 0.000572685 -0.0560891 20.1253 -0.000250291 -0.0401439
20.1711 0.000426212 -0.0966791 20.2084 0.00053284 -0.0923256 20.1407 2.23463e-05 -0.0758766 20.1798
0.000504992 -0.0990523 20.1627 0.000332262 -0.0942367 20.2512 0.000510255 -0.0300339 20.1201 -0.000471792
-0.0205572 20.1887 0.000541875 -0.101347 20.1547 0.00027812 -0.0917389 20.2513 0.000576538 -0.0433762
20.1197 -0.000438395 -0.0297231 20.2288 0.000591433 -0.0818917 20.1279 -0.00015087 -0.0611904 20.1979
0.000573284 -0.103549 20.2398 0.000611756 -0.0695665 20.1469 0.000208326 -0.0891978 20.1233 -0.000258553
-0.0497253 20.2181 0.000606985 -0.0940334 20.1334 -4.65327e-05 -0.0736315 20 0 0
20 0 0 20.109 -0.000513003 -0.00420797 20.2548 0.00035491 -0.00598217 20.205
0.000621182 -0.105121 20.2509 0.000647591 -0.0568374 20.1189 -0.00038114 -0.0388403 20.2603 0.000508439
-0.017068 20.1135 -0.00050279 -0.0112345 20.2074 0.000637181 -0.105646 20.1394 0.000106053 -0.0866269
20.1691 0.00050827 -0.10885 20.1779 0.000586314 -0.111563 20.1607 0.000411895 -0.106059 20.2612
0.000574428 -0.0303805 20.114 -0.000501519 -0.0198725 20.2387 0.000640824 -0.0831389 20.1213 -0.000266989
-0.0592533 20.2279 0.000646403 -0.0956262 20.1265 -9.7472e-05 -0.0713762 20.1869 0.000626343 -0.11419
20.1526 0.000350875 -0.103209 20.2499 0.000686306 -0.0705011 20.1169 -0.000380536 -0.0481066 20.2614
0.000639665 -0.0438768 20.1136 -0.000510743 -0.0287316 20.2171 0.000708275 -0.10763 20.1322 3.6419e-05
-0.0840417 20.1962 0.000662107 -0.116714 20.1448 0.000277731 -0.100313 20.2611 0.000710221 -0.0575023
20.1128 -0.000484532 -0.0375417 20 0 0 20 0 0 20.1032
-0.000543043 -0.00408529 20.2648 0.000378672 -0.00602576 20.2057 0.000724429 -0.1191 20.2058 0.000724999
-0.119121 20.1372 0.000174353 -0.0973842 20.2058 0.00072555 -0.119471 20.238 0.000699512 -0.0970956
20.1198 -0.00020447 -0.0691196 20.2704 0.000538326 -0.0172283 20.1076 -0.000519098 -0.0108546 20.2489
0.000716865 -0.0842726 20.1149 -0.00038445 -0.0573182 20.2271 0.00074761 -0.109482 20.1253 -1.33382e-05
-0.0814491 20.1664 0.000522627 -0.121169 20.1752 0.000594642 -0.124242 20.1578 0.000433327 -0.118013
20.2714 0.000606196 -0.0306772 20.1081 -0.000507237 -0.0191905 20.1844 0.000637631 -0.127219 20.1496
0.000369808 -0.114795 20.2601 0.000749776 -0.0713322 20.1108 -0.000451676 -0.0464982 20.2157 0.000793204
-0.121399 20.13 0.000100389 -0.0944397 20.2716 0.000672197 -0.0443058 20.1078 -0.000541942 -0.027737
20.1938 0.00067908 -0.130084 20.1417 0.000291488 -0.111529 20.2484 0.000780958 -0.0984319 20.1134
-0.000333989 -0.0668682 20.2374 0.000802506 -0.111192 20.1187 -0.000114244 -0.0788556 20.2714 0.000744067
-0.0580745 20.107 -0.000530474 -0.0362554 20.2036 0.00074657 -0.132821 20.2593 0.000781143 -0.0852821
20.1341 0.000183952 -0.108228 20.1087 -0.000441841 -0.0553925 20.2258 0.000834527 -0.123527 20.1231
4.20768e-05 -0.0914893 20 0 0 20 0 0 20.0975 -0.000548266
-0.00395929 20.2749 0.000400623 -0.00605914 20.2061 0.000764433 -0.133476 20.2807 0.000564009 -0.0173577
20.102 -0.000530241 -0.0104779 20.1634 0.000547982 -0.133847 20.1724 0.000622867 -0.137293 20.1548
0.000456147 -0.130312 20.2817 0.000636803 -0.0309188 20.1025 -0.000526701 -0.0185092 20.2706 0.000786619
-0.0720486 20.1049 -0.000487061 -0.0449116 20.2136 0.000817134 -0.13541 20.1816 0.000665116 -0.140633
20.1268 0.000104347 -0.104912 20.1465 0.000392605 -0.126714 20.2478 0.000888574 -0.112749 20.1123
-0.000253624 -0.0762694 20.2819 0.000705377 -0.0446562 20.1022 -0.000565621 -0.026734 20.2589 0.000847828
-0.0996229 20.1073 -0.000421711 -0.0646241 20.2362 0.000891754 -0.125497 20.1165 -7.03874e-05 -0.0885363
20.1912 0.000707498 -0.143854 20.1386 0.000312694 -0.123067 20.2699 0.000820526 -0.0861547 20.1029
-0.000476914 -0.053479 20.2818 0.000778248 -0.0585447 20.1013 -0.000557333 -0.034976 20.224 0.000861269
-0.137835 20.1199 3.90186e-05 -0.10159 20.2012 0.00077687 -0.146936 20.1309 0.000201375 -0.119386
20 0 0 20 0 0 20.0922 -0.000521654 -0.00382079 20.285
0.00043306 -0.00608222 20.291 0.000599471 -0.0174581 20.0967 -0.000521894 -0.0101004 20.2069 0.000816611
-0.148582 20.1604 0.000602642 -0.146716 20.2585 0.000959548 -0.114138 20.2811 0.000824239 -0.0726395
20.2469 0.000977301 -0.127292 20.0993 -0.00051806 -0.043348 20.1062 -0.000363487 -0.0736984 20.1102
-0.000210602 -0.0855901 20.1695 0.000684391 -0.150565 20.1517 0.000500912 -0.142777 20.292 0.000678088
-0.0311082 20.0972 -0.00052401 -0.0178267 20.2114 0.000847271 -0.149852 20.1236 0.000117397 -0.115691
20.1788 0.00072496 -0.154294 20.2696 0.000888426 -0.100654 20.1434 0.000434746 -0.138774 20.1015
-0.000469877 -0.0623873 20.2346 0.000919291 -0.140081 20.1132 -8.01187e-05 -0.0982681 20.2924 0.000756569
-0.0449297 20.0968 -0.000564366 -0.025716 20.1885 0.000765313 -0.157897 20.1355 0.000355628 -0.134721
20.2806 0.000859866 -0.086876 20.0973 -0.000509324 -0.05158 20.2219 0.000890305 -0.152587 20.1166
5.24444e-05 -0.111991 20.2923 0.000836702 -0.0589141 20.096 -0.000564653 -0.0337027 20.1986 0.000832058
-0.16135 20.1278 0.000244667 -0.130636 20.2577 0.00104887 -0.128894 20.1041 -0.000311982 -0.0826661
20.2694 0.00100234 -0.115342 20.1004 -0.000422154 -0.0711535 20.2454 0.00100149 -0.142131 20.1068
-0.000213861 -0.0949552 20 0 0 20 0 0 20.0872 -0.000498479
-0.00366893 20.2953 0.000522185 -0.0060953 20.3014 0.000692158 -0.0175278 20.0917 -0.000518191 -0.00972484
20.2918 0.000882805 -0.0731046 20.0939 -0.000538405 -0.0418131 20.2083 0.000894451 -0.164403 20.209
0.000898883 -0.16462 20.2805 0.000926886 -0.101507 20.1568 0.000619118 -0.159861 20.1205 0.000160061
-0.126538 20.0959 -0.00050546 -0.0601587 20.2327 0.000947936 -0.155124 20.166 0.0006989 -0.164136
20.3025 0.000772503 -0.0312429 20.1481 0.000518365 -0.155492 20.0922 -0.000524383 -0.0171372 20.1099
-5.98032e-05 -0.108295 20.2086 0.000901907 -0.166582 20.1755 0.000742606 -0.168285 20.1397 0.00044693
-0.151059 20.3029 0.000859355 -0.0451235 20.0918 -0.00056381 -0.0246672 20.1853 0.000785428 -0.172297
20.1317 0.00036305 -0.146577 20.2914 0.000917797 -0.0874439 20.0919 -0.000534108 -0.049695 20.2197
0.000939443 -0.167691 20.1136 9.68722e-05 -0.122441 20.2688 0.00109604 -0.130286 20.2565 0.0010719
-0.143964 20.0983 -0.000370859 -0.079781 20.1007 -0.000301734 -0.0916692 20.303 0.000946327 -0.0591767
20.0909 -0.00057059 -0.032442 20.2804 0.00104179 -0.116342 20.0949 -0.000462753 -0.0686392 20.2438
0.00103174 -0.157442 20.1955 0.000853594 -0.176148 20.1035 -0.00019634 -0.104614 20.124 0.00024988
-0.142063 20 0 0 20 0 0 20.2915 0.000988982 -0.102179
20.0824 -0.000513778 -0.00352561 20.3056 0.00060669 -0.00609835 20.0905 -0.000535747 -0.057933 20.3026
0.000990143 -0.0734358 20.0889 -0.000556569 -0.0403308 20.2307 0.000997366 -0.170544 20.1069 -1.05436e-05
-0.118351 20.3119 0.000783442 -0.0175649 20.087 -0.000536292 -0.00937498 20.2061 0.000922291 -0.179803
20.1167 0.000162858 -0.137537 20.1526 0.000640133 -0.173272 20.1618 0.000721301 -0.178005 20.313
0.000865071 -0.0313208 20.2096 0.000936151 -0.180894 20.0874 -0.000543771 -0.0164212 20.1437 0.00053697
-0.168445 20.2678 0.00112237 -0.145562 20.1714 0.000770141 -0.182608 20.0949 -0.000358756 -0.0884195
20.1353 0.000459214 -0.163554 20.28 0.00114077 -0.131449 20.2552 0.00110379 -0.159519 20.0928
-0.000414782 -0.0769434 20.0975 -0.000295872 -0.100967 20.3136 0.000951182 -0.0452368 20.0869 -0.00058529
-0.023539 20.3023 0.00102471 -0.0878508 20.0869 -0.000556878 -0.0478247 20.2171 0.000965932 -0.183237
20.1815 0.000816617 -0.187061 20.1272 0.000370593 -0.158614 20.1098 9.44558e-05 -0.133016 20.2916
0.00111104 -0.117132 20.0896 -0.000499715 -0.0661605 20.2421 0.00108597 -0.173155 20.1006 -0.00015477
-0.114285 20.3137 0.00103812 -0.0593305 20.0859 -0.000596226 -0.0312169 20.1919 0.000885899 -0.191345
20.1195 0.000255467 -0.153643 20.3026 0.00110154 -0.102661 20.0855 -0.000561724 -0.0556904 20.2283
0.00102607 -0.186433 20.1032 -1.93722e-05 -0.128503 20.3134 0.0010844 -0.0736284 20.0841 -0.000584567
-0.038984 20.2793 0.0011732 -0.146901 20.2667 0.00115486 -0.161337 20.2027 0.000956688 -0.195421
20 0 0 20 0 0 20.0777 -0.000523782 -0.00349317 20.316
0.000685771 -0.00608856 20.0894 -0.000404648 -0.0852111 20.0917 -0.000357855 -0.0973594 20.1122 0.000167009
-0.148667 20.3224 0.000866116 -0.0175679 20.0824 -0.000551121 -0.0091438 20.2915 0.00121388 -0.13237
20.2537 0.00116159 -0.1755 20.0876 -0.000455143 -0.0741619 20.148 0.000745431 -0.187108 20.0946
-0.00027908 -0.110264 20.1573 0.00083493 -0.192327 20.3236 0.000948697 -0.0313379 20.139 0.000629349
-0.181797 20.0829 -0.000575646 -0.015683 20.2109 0.000992304 -0.198241 20.167 0.000884858 -0.197414
20.1305 0.000544761 -0.176424 20.3134 0.0011227 -0.088091 20.0823 -0.00058579 -0.04598 20.3242
0.00102812 -0.0452628 20.0821 -0.000606958 -0.0222741 20.2139 0.00100507 -0.199252 20.3029 0.00122923
-0.117702 20.1052 9.34038e-05 -0.143697 20.0846 -0.000530659 -0.0637236 20.2399 0.00111376 -0.189364
20.0969 -0.000162925 -0.124021 20.1772 0.000930514 -0.20234 20.1225 0.000454702 -0.171005 20.3245
0.00111038 -0.0593703 20.081 -0.000618834 -0.0300818 20.1878 0.0009985 -0.207089 20.1148 0.00033861
-0.165562 20.2785 0.00120806 -0.162865 20.0862 -0.000406357 -0.0937894 20.291 0.00124833 -0.147962
20.2655 0.00121296 -0.177559 20.3138 0.00120048 -0.102949 20.0842 -0.000446002 -0.0820446 20.0807
-0.000592777 -0.0533648 20.0889 -0.00035671 -0.106299 20.2254 0.00107038 -0.202823 20.0986 -2.81975e-05
-0.13874 20.2119 0.00106672 -0.208188 20.3243 0.0011622 -0.0736788 20.0795 -0.000622614 -0.0379235
20.303 0.00133237 -0.133039 20.2518 0.00118942 -0.192003 20.1989 0.00106946 -0.21162 20.0827
-0.000490951 -0.0714642 20.1075 0.000249229 -0.160122 20.0909 -0.00028114 -0.11959 20 0
0 20 0 0 20.0737 -0.000594837 -0.00385948 20.3264 0.000791978 -0.00606315
20.333 0.000977585 -0.0175326 20.0788 -0.000617893 -0.0091346 20.1432 0.000888066 -0.201278 20.1526
0.000979888 -0.207026 20.1342 0.000767442 -0.195439 20.3343 0.00105847 -0.031287 20.0785 -0.000679022
-0.0150508 20.3143 0.00132698 -0.118046 20.0797 -0.000565142 -0.061335 20.2373 0.0011603 -0.206107
20.3244 0.00120669 -0.088159 20.1625 0.00102983 -0.212642 20.0779 -0.000627455 -0.0442147 20.1257
0.00067889 -0.189541 20.0924 -0.000174421 -0.133824 20.2103 0.0011198 -0.215883 20.1005 0.000175432
-0.154692 20.2121 0.00113043 -0.216481 20.335 0.0011385 -0.0451918 20.0785 -0.000677803 -0.0212219
20.2905 0.00128894 -0.164074 20.2776 0.00126626 -0.179295 20.1728 0.00107576 -0.218087 20.1176
0.000586984 -0.183603 20.081 -0.000450385 -0.0902554 20.0835 -0.000410616 -0.102392 20.3028 0.00136571
-0.148741 20.264 0.00124343 -0.194324 20.0793 -0.000484081 -0.0789257 20.0853 -0.000358395 -0.115226
20.3353 0.00122315 -0.0592873 20.0767 -0.000715594 -0.029065 20.1836 0.00114507 -0.223346 20.11
0.00046903 -0.177646 20.325 0.00128619 -0.103034 20.0761 -0.000633471 -0.0508764 20.2221 0.00119059
-0.219864 20.094 5.46844e-05 -0.149289 20.3147 0.0014322 -0.133447 20.2495 0.00123831 -0.20907
20.0781 -0.000528985 -0.068941 20.0864 -0.00028555 -0.128972 20.3353 0.00127476 -0.0735794 20.0759
-0.000706374 -0.0372787 20.1949 0.00121779 -0.228375 20.1028 0.00037679 -0.1717 20 0
0 20.3367 0.000856365 -0.00602503 20.3436 0.00105199 -0.0174595 20.2899 0.00135258 -0.180676
20.3258 0.00141357 -0.118156 20.0784 -0.000458736 -0.0985499 20.2343 0.00129149 -0.223531 20.0749
-0.000608038 -0.0590208 20.1383 0.00101 -0.215699 20.3026 0.00141106 -0.164968 20.0878 -9.82622e-05
-0.143939 20.2764 0.00129982 -0.196292 20.1479 0.00109945 -0.222021 20.1293 0.000892693 -0.209287
20.3449 0.00113302 -0.0311699 20.076 -0.000489464 -0.0867477 20.08 -0.000412699 -0.110933 20.3356
0.00132124 -0.0880455 20.0737 -0.000740712 -0.0426849 20.2066 0.00127033 -0.23312 20.0959 0.000302526
-0.165772 20.1579 0.00115327 -0.228213 20.1207 0.000800811 -0.20282 20.3148 0.0014691 -0.149223
20.3457 0.0012222 -0.0450258 20.262 0.00129707 -0.211685 20.0748 -0.000523963 -0.0758824 20.0808
-0.000357805 -0.124189 20.1684 0.0012046 -0.234231 20.2126 0.0013073 -0.235326 20.1126 0.000705215
-0.196321 20.3461 0.00131686 -0.0590789 20.3364 0.00140792 -0.102903 20.0723 -0.000720169 -0.0488073
20.2187 0.00134467 -0.237555 20.1794 0.00127601 -0.240049 20.105 0.000586449 -0.189811 20.3264
0.00152189 -0.133588 20.2469 0.00137839 -0.22685 20.0895 0.000185092 -0.159889 20.0736 -0.000577886
-0.0667865 20.0819 -0.000231441 -0.138666 20.3462 0.00136548 -0.0733236 20.3024 0.00147894 -0.181701
20.289 0.00138618 -0.197866 20.1909 0.00134973 -0.245628 20.0735 -0.000497157 -0.0947851 20.075
-0.000455188 -0.106721 20.0978 0.000491137 -0.183315 20.3149 0.00151564 -0.165532 20.2748 0.00135727
-0.213912 20.0714 -0.000530406 -0.0832218 20.0755 -0.000410166 -0.119477 20.3374 0.00154278 -0.118016
20.2313 0.00145175 -0.24165 20.0705 -0.000722805 -0.0569011 20 0 0 20
0 0 20.347 0.000897901 -0.00597606 20.0667 -0.000725729 -0.00494473 20.0834 2.92894e-05
-0.154071 20.3541 0.00110206 -0.0173503 20.3467 0.001411 -0.0877448 20.1328 0.0010904 -0.230501
20.2029 0.00140649 -0.25091 20.3268 0.00156147 -0.149401 20.2598 0.00144068 -0.22979 20.1425
0.00117825 -0.237438 20.1236 0.00097759 -0.223479 20.3555 0.00118714 -0.0309879 20.0706 -0.000576156
-0.0730249 20.091 0.00041097 -0.176856 20.0764 -0.000321039 -0.133472 20.0696 -0.000825688 -0.0146805
20.1527 0.00123759 -0.24425 20.115 0.000883426 -0.216409 20.3563 0.00127872 -0.0447659 20.1634
0.00129656 -0.25089 20.1068 0.000782982 -0.209313 20.2125 0.00146635 -0.254724 20.3382 0.00165197
-0.133444 20.2443 0.00154373 -0.245366 20.07 -0.000670643 -0.0653873 20.3477 0.00150593 -0.102553
20.2153 0.00148402 -0.25585 20.3019 0.0015113 -0.199039 20.0777 -0.000119783 -0.14834 20.3569
0.00137532 -0.058745 20.0846 0.000288062 -0.170456 20.0703 -0.000489037 -0.102613 20.068 -0.000871058
-0.0274631 20.1746 0.00137286 -0.257313 20.2879 0.00144368 -0.215702 20.315 0.00158115 -0.182356
20.0991 0.000660353 -0.202217 20.0689 -0.000537383 -0.0911079 20.0705 -0.00044786 -0.114842 20.2731
0.00150266 -0.232303 20.3273 0.00160878 -0.165751 20.0671 -0.000582935 -0.0796398 20.0712 -0.000382234
-0.128359 20.3572 0.00142594 -0.0729107 20.1864 0.00144993 -0.26349 20.0919 0.000558172 -0.195143
20.3489 0.00164891 -0.117621 20.2283 0.00159045 -0.260422 20.0786 0.00012934 -0.164135 20.2576
0.00160832 -0.248667 20.3389 0.0016871 -0.149257 20.0665 -0.000702755 -0.0705962 20.0723 -0.000224738
-0.142713 20 0 0 20.3573 0.000932995 -0.0059155 20.3646 0.0011423 -0.0172046
20.3578 0.00147386 -0.087256 20.1987 0.00151226 -0.26936 20.0851 0.00046941 -0.188127 20.0648
-0.000895807 -0.0398751 20.1265 0.00117335 -0.245787 20.1363 0.00126173 -0.253379 20.1172 0.00105937
-0.238116 20.3661 0.00123476 -0.0307389 20.1466 0.00132153 -0.260856 20.3012 0.00156923 -0.217044
20.3149 0.00161625 -0.199798 20.1085 0.000965134 -0.230407 20.0658 -0.000527347 -0.098684 20.0659
-0.000479985 -0.110286 20.367 0.00132883 -0.044409 20.2866 0.00159404 -0.234337 20.3277 0.00167279
-0.182627 20.2417 0.00168285 -0.264582 20.1576 0.0013837 -0.268166 20.35 0.0017598 -0.133009
20.0645 -0.00058192 -0.0875524 20.0663 -0.000436755 -0.123325 20.1003 0.000864812 -0.222685 20.073
-1.94349e-05 -0.157912 20.2109 0.00158856 -0.274552 20.359 0.0015705 -0.101983 20.2116 0.00159299
-0.274854 20.0788 0.000339769 -0.181184 20.3676 0.00142666 -0.0582844 20.1691 0.00146563 -0.275244
20.2713 0.00167364 -0.251505 20.3397 0.0017394 -0.165607 20.0926 0.000738499 -0.214971 20.0636
-0.000682381 -0.076741 20.0673 -0.000296552 -0.137195 20.368 0.00148137 -0.0723412 20.1812 0.0015474
-0.282069 20.0854 0.000630546 -0.207299 20.2249 0.00169791 -0.27995 20.3604 0.00171399 -0.116972
20.2555 0.00175231 -0.26829 20.351 0.00179198 -0.148783 20.0728 0.000179221 -0.174332 20.062
-0.000883627 -0.0530629 20.0678 -0.000128643 -0.151811 20.3147 0.00168077 -0.217927 20.0616 -0.000517978
-0.105833 20.3004 0.00172383 -0.23587 20.3281 0.00171174 -0.200129 20.0617 -0.000571297 -0.0951083
20.0617 -0.000482217 -0.118361 20.3689 0.00153296 -0.086578 20.2087 0.00166052 -0.287714 20
0 0 20 0 0 20.3675 0.00103431 -0.00584177 20.1939 0.00161295
-0.288578 20.06 -0.000821073 -0.00608187 20.0786 0.000540102 -0.199707 20.375 0.00124009 -0.017022