# vtk DataFile Version 2.0
track0
ASCII
DATASET POLYDATA
POINTS 20502 float
-1.001 -0.05 0.0011
-1.00079 -0.05 0.0011
-1.00058 -0.0500001 0.0011
-1.00038 -0.0500001 0.0011
-1.00017 -0.0500002 0.00110001
-0.999962 -0.0500002 0.00110001
-0.98746 -0.0500028 0.00110016
-0.974958 -0.0500075 0.00109998
-0.962456 -0.0500123 0.00109981
-0.949954 -0.0500171 0.00109963
-0.937452 -0.0500218 0.00109946
-0.924948 -0.0500221 0.00109968
-0.912445 -0.0500274 0.00109975
-0.899941 -0.0500327 0.00109983
-0.887437 -0.0500379 0.0010999
-0.874933 -0.0500432 0.00109998
-0.862428 -0.0500436 0.0011003
-0.849922 -0.0500496 0.00110053
-0.837416 -0.0500556 0.00110077
-0.82491 -0.0500616 0.00110101
-0.812404 -0.0500676 0.00110125
-0.799896 -0.0500717 0.00110156
-0.787388 -0.0500787 0.00110185
-0.774879 -0.0500856 0.00110215
-0.762371 -0.0500926 0.00110245
-0.749862 -0.0500995 0.00110274
-0.737351 -0.0501047 0.00110301
-0.724839 -0.0501131 0.00110329
-0.712327 -0.0501215 0.00110357
-0.699816 -0.0501299 0.00110386
-0.687304 -0.0501383 0.00110414
-0.674789 -0.0501393 0.00110434
-0.662273 -0.0501499 0.00110453
-0.649757 -0.0501604 0.00110472
-0.637242 -0.0501709 0.00110491
-0.624726 -0.0501814 0.0011051
-0.612206 -0.0501901 0.001105
-0.599685 -0.0502038 0.00110498
-0.587165 -0.0502175 0.00110495
-0.574644 -0.0502312 0.00110492
-0.562124 -0.0502449 0.0011049
-0.549598 -0.0502567 0.00110433
-0.537072 -0.0502759 0.00110376
-0.524546 -0.050295 0.00110318
-0.51202 -0.0503141 0.0011026
-0.499494 -0.0503332 0.00110203
-0.486962 -0.0503506 0.00110051
-0.47443 -0.0503811 0.00109872
-0.461898 -0.0504115 0.00109694
-0.449366 -0.0504419 0.00109516
-0.436834 -0.0504722 0.00109338
-0.424293 -0.0504775 0.00108871
-0.411752 -0.0505334 0.00108204
-0.399211 -0.050589 0.00107541
-0.386669 -0.0506442 0.00106883
-0.374128 -0.0506991 0.00106228
-0.367853 -0.0507211 0.00105708
-0.361578 -0.050776 0.00105283
-0.355302 -0.0508308 0.0010486
-0.349027 -0.0508853 0.00104438
-0.342751 -0.0509395 0.00104018
-0.336478 -0.0509763 0.00103484
-0.330205 -0.0510493 0.00103034
-0.323932 -0.051122 0.00102587
-0.317659 -0.0511944 0.00102141
-0.311385 -0.0512664 0.00101698
-0.305109 -0.0513165 0.00101069
-0.298833 -0.051416 0.00100509
-0.292557 -0.051515 0.000999515
-0.286282 -0.0516134 0.000993974
-0.280004 -0.0517113 0.000988463
-0.273728 -0.0517771 0.000980914
-0.267453 -0.0519197 0.000973474
-0.261178 -0.0520611 0.000966092
-0.254904 -0.0522014 0.000958768
-0.248625 -0.0523407 0.000951497
-0.242358 -0.0524315 0.000942194
-0.236096 -0.0526581 0.000931342
-0.229833 -0.052882 0.000920619
-0.22357 -0.0531033 0.000910024
-0.217295 -0.0533223 0.000899535
-0.211049 -0.0534603 0.000887795
-0.204812 -0.0538325 0.000873389
-0.198575 -0.0541984 0.000859225
-0.192338 -0.0545583 0.000845298
-0.186067 -0.054914 0.00083153
-0.182944 -0.0550237 0.000825726
-0.179828 -0.0552568 0.000820906
-0.176711 -0.0554885 0.000816115
-0.173595 -0.0557188 0.000811352
-0.170452 -0.0559497 0.000806578
-0.167328 -0.0560679 0.000798516
-0.164212 -0.0563181 0.000795618
-0.161096 -0.0565673 0.00079273
-0.157979 -0.0568157 0.000789854
-0.154833 -0.0570655 0.00078696
-0.151687 -0.0571934 0.000784928
-0.14855 -0.0574739 0.000783608
-0.145413 -0.057754 0.00078229
-0.142277 -0.0580335 0.000780974
-0.139104 -0.0583159 0.000779645
-0.135929 -0.0584563 0.000779647
-0.132767 -0.058776 0.000780573
-0.129603 -0.059084 0.000781612
-0.126438 -0.0593716 0.000782842
-0.123238 -0.0596429 0.000784268
-0.120025 -0.0598023 0.000786729
-0.11682 -0.0600727 0.000790798
-0.113613 -0.0603203 0.000795195
-0.110405 -0.0605469 0.0007999
-0.107188 -0.0607543 0.000804911
-0.107097 -0.0607596 0.000805058
-0.107006 -0.0607649 0.000805209
-0.106916 -0.0607702 0.000805363
-0.106825 -0.0607756 0.00080552
-0.106738 -0.0607807 0.000805674
-0.103576 -0.0609676 0.000811349
-0.100417 -0.0611946 0.00081962
-0.0972594 -0.0614358 0.000827503
-0.0941027 -0.0616918 0.000834977
-0.0909423 -0.0619632 0.000842031
-0.0876987 -0.0621932 0.000851288
-0.0844634 -0.0625197 0.000858537
-0.0812303 -0.0628676 0.000865194
-0.0779992 -0.0632333 0.000870898
-0.0747613 -0.0635868 0.000876653
-0.0716062 -0.0637423 0.000886306
-0.0684643 -0.0640699 0.000890475
-0.0653268 -0.064437 0.000893405
-0.0621894 -0.0648053 0.000896344
-0.0590605 -0.065128 0.000900754
-0.0560849 -0.0652714 0.000910259
-0.0531182 -0.065543 0.000912862
-0.050156 -0.0658596 0.000913017
-0.0471939 -0.0661762 0.000913173
-0.0442272 -0.0664764 0.000919666
-0.0412848 -0.0667319 0.000942728
-0.038343 -0.0669956 0.000948898
-0.0354015 -0.0672619 0.000947362
-0.0324599 -0.0675279 0.000945828
-0.0295161 -0.0677791 0.000954027
-0.0265399 -0.0680037 0.000983427
-0.0235628 -0.0682189 0.000990279
-0.0205853 -0.068427 0.000984677
-0.0176076 -0.0686339 0.000979104
-0.0146328 -0.068797 0.000978133
-0.0116209 -0.0688806 0.000985835
-0.00860988 -0.0689895 0.000981942
-0.00559934 -0.0691112 0.000971801
-0.00258875 -0.0692318 0.000961754
0.000425332 -0.0693434 0.000965207
0.00346065 -0.069436 0.000991386
0.00649698 -0.069492 0.000994155
0.00953365 -0.0695224 0.00098131
0.0125703 -0.0695525 0.000968616
0.0156022 -0.0695781 0.000969807
0.0186449 -0.0695966 0.000992806
0.0216874 -0.0695591 0.000994654
0.0247294 -0.0694883 0.00098182
0.0277713 -0.0694183 0.000969136
0.0308138 -0.0693531 0.000968743
0.0338436 -0.0693003 0.000987767
0.0368716 -0.0691811 0.0009885
0.0398979 -0.0690267 0.000976855
0.0429244 -0.068874 0.000965334
0.0459573 -0.0687567 0.000955614
0.0489754 -0.0687071 0.000949334
0.0519887 -0.0685291 0.000941172
0.0549977 -0.0682903 0.000932149
0.058007 -0.0680536 0.000923204
0.0610268 -0.0678667 0.000914002
0.0640605 -0.0677916 0.000904149
0.0670863 -0.0675589 0.000895048
0.0701066 -0.0672649 0.000886299
0.0731273 -0.0669734 0.00087763
0.0761581 -0.066704 0.000870886
0.0792633 -0.0664859 0.000869182
0.0823595 -0.0661649 0.000861603
0.0854523 -0.0658124 0.000852147
0.0885454 -0.0654635 0.000842787
0.0916635 -0.0651372 0.000833699
0.0948237 -0.0648872 0.000825469
0.097976 -0.0645521 0.000812439
0.101127 -0.0642062 0.000798718
0.104279 -0.0638658 0.000785213
0.107455 -0.0635453 0.000771754
0.110646 -0.0634409 0.000757571
0.113826 -0.0631513 0.000742009
0.117007 -0.0628722 0.000726851
0.12019 -0.0626128 0.000712279
0.123401 -0.0623702 0.000698149
0.126587 -0.0622175 0.000686124
0.129771 -0.0620253 0.000673571
0.132955 -0.0618473 0.000661466
0.13614 -0.0616826 0.000649792
0.13933 -0.0615307 0.00063852
0.140845 -0.0614728 0.000633533
0.142361 -0.0614122 0.000628734
0.143877 -0.0613552 0.000624131
0.145392 -0.0613001 0.000619596
0.147024 -0.061243 0.000614785
0.148653 -0.0611882 0.000610059
0.150281 -0.0611307 0.000605458
0.15191 -0.0610704 0.000600985
0.153538 -0.0610071 0.000596641
0.155168 -0.0609407 0.000592426
0.158315 -0.0608386 0.000583623
0.161462 -0.060706 0.000577065
0.164607 -0.0605631 0.000570916
0.167753 -0.0604091 0.000565191
0.170905 -0.0602429 0.000559893
0.174044 -0.0601536 0.000552546
0.177179 -0.0599826 0.000548457
0.180313 -0.0597996 0.000544713
0.183446 -0.0596043 0.000541314
0.186597 -0.0594092 0.000537917
0.189732 -0.0593156 0.000538003
0.192862 -0.0591399 0.000535085
0.195993 -0.0589652 0.000532183
0.199124 -0.0587914 0.000529297
0.202269 -0.0586178 0.000526413
0.205402 -0.0585347 0.000526544
0.208532 -0.0583799 0.000523248
0.211662 -0.058226 0.000519973
0.214793 -0.0580731 0.000516718
0.217933 -0.0579206 0.000513473
0.224191 -0.0578001 0.000504797
0.230446 -0.0575685 0.000504395
0.2367 -0.0573372 0.000503994
0.242955 -0.057106 0.000503593
0.249221 -0.0568746 0.000503191
0.255492 -0.0567708 0.000513633
0.261762 -0.0566268 0.000511906
0.268032 -0.0564832 0.000510185
0.274302 -0.0563402 0.00050847
0.280575 -0.0561975 0.00050676
0.286863 -0.0561518 0.000503069
0.293151 -0.0560577 0.000500506
0.299439 -0.055964 0.000497956
0.305727 -0.0558708 0.00049542
0.312016 -0.0557781 0.000492896
0.318314 -0.0557406 0.000497612
0.324611 -0.0556697 0.000494705
0.330908 -0.0555993 0.000491815
0.337205 -0.0555292 0.000488941
0.343503 -0.0554596 0.000486085
0.349802 -0.0554329 0.000482514
0.356101 -0.055376 0.000479492
0.3624 -0.0553195 0.00047649
0.368699 -0.0552633 0.000473506
0.374999 -0.0552075 0.00047054
0.381289 -0.0551851 0.000467072
0.387579 -0.055137 0.000464162
0.393869 -0.0550891 0.00046127
0.400159 -0.0550415 0.000458395
0.406449 -0.0549943 0.000455539
0.412727 -0.0549749 0.000452325
0.419004 -0.0549327 0.000449611
0.425282 -0.0548907 0.000446912
0.431559 -0.054849 0.00044423
0.437837 -0.0548076 0.000441564
0.4441 -0.0547902 0.000438709
0.450362 -0.0547526 0.000436257
0.456624 -0.0547152 0.000433819
0.462887 -0.054678 0.000431395
0.46915 -0.054641 0.000428984
0.475399 -0.0546252 0.000426585
0.481649 -0.0545914 0.00042454
0.487898 -0.0545577 0.000422505
0.494148 -0.0545242 0.00042048
0.500398 -0.0544908 0.000418465
0.506641 -0.0544742 0.000420035
0.512885 -0.0544432 0.000418405
0.519128 -0.0544123 0.000416781
0.525371 -0.0543815 0.000415164
0.531614 -0.0543509 0.000413553
0.537853 -0.0543372 0.000412202
0.544092 -0.0543087 0.000411105
0.550331 -0.0542803 0.000410011
0.55657 -0.054252 0.000408919
0.562809 -0.0542238 0.000407831
0.569041 -0.0542095 0.000409558
0.575273 -0.054183 0.000408821
0.581505 -0.0541566 0.000408086
0.587737 -0.0541302 0.000407352
0.593969 -0.0541039 0.000406619
0.600196 -0.0540914 0.000406205
0.606422 -0.0540669 0.000405742
0.612648 -0.0540423 0.00040528
0.618874 -0.0540178 0.000404819
0.6251 -0.0539934 0.000404357
0.631325 -0.0539808 0.000406272
0.637551 -0.0539578 0.000406026
0.643777 -0.0539349 0.00040578
0.650002 -0.0539119 0.000405535
0.656228 -0.053889 0.000405289
0.66246 -0.0538774 0.000405511
0.668691 -0.0538559 0.000405442
0.674923 -0.0538345 0.000405372
0.681154 -0.053813 0.000405302
0.687386 -0.0537916 0.000405233
0.693627 -0.0537804 0.000405697
0.699869 -0.0537603 0.000405762
0.70611 -0.0537403 0.000405826
0.712352 -0.0537203 0.000405891
0.718593 -0.0537002 0.000405955
0.724846 -0.0536895 0.000406609
0.731099 -0.0536708 0.000406742
0.737352 -0.0536522 0.000406874
[...]
POINT_DATA 20502
 FIELD attributes 2
p 1 20502 float
18.5443 18.5498 18.5554 18.5609 18.5665 18.572 18.8677 19.1635 19.4593 19.7551 20.0924 20.4591 20.8087 21.1582 21.5078 21.8541 22.2416 22.6234 23.0052 23.387 23.7808 24.2423 24.6831 25.1239 25.5647 26.0065 26.5286 27.0405 27.5525 28.0645 28.597 29.2363 29.825 30.4138 31.0025 31.5881 32.2912 32.9623 33.6334 34.3045 35.0191 35.9124 36.6628 37.4131 38.1635 38.8952 39.8313 40.6441 41.4568 42.2696 43.1804 44.571 45.4144 46.2578 47.1012 48.4493 49.0813 49.6199 50.2046 50.7894 51.2794 51.6658 51.7135 51.7613 52.1294 52.2603 52.6274 52.7573 52.5575 52.3578 52.0684 51.9001 51.228 50.5562 50.2717 49.7915 49.4181 48.4608 47.0113 45.5632 44.1613 42.4134 39.9536 37.4972 35.4007 32.4086 30.9545 29.5429 28.0854 26.6288 25.2582 22.9335 20.6096 18.2862 16.0831 14.0511 11.3122 8.65673 6.07113 3.4858 0.89229 -2.74235 -5.60912 -8.42583 -11.2372 -13.8869 -17.3636 -20.3205 -23.2765 -26.2315 -29.1957 -29.3021 -29.3825 -29.4628 -29.5432 -29.6207 -32.4616 -35.2289 -37.9894 -40.7428 -43.0738 -45.0868 -47.48 -49.8266 -52.0899 -53.9553 -54.9875 -56.9473 -59.208 -60.604 -62.8107 -63.1063 -63.586 -64.664 -66.2738 -68.4835 -67.5821 -67.3261 -67.5773 -68.362 -69.773 -68.3896 -67.6166 -67.6212 -68.3082 -69.5002 -68.4969 -67.9808 -68.0988 -69.1065 -70.7748 -69.5201 -68.8126 -69.028 -69.9601 -71.4148 -70.2802 -69.57 -69.7184 -70.4617 -71.5888 -70.2811 -69.5234 -69.5901 -69.9544 -70.6906 -69.5395 -68.898 -68.915 -69.2427 -69.8445 -68.4789 -68.0494 -68.2796 -69.2538 -71.2254 -69.7511 -69.2008 -69.0913 -69.5579 -70.7406 -68.5961 -67.2373 -65.2886 -63.4324 -62.6281 -60.3345 -58.0772 -55.8015 -53.5062 -51.7574 -49.734 -47.7121 -45.6813 -43.6419 -41.6997 -40.7956 -39.8973 -38.9962 -38.0945 -37.123 -36.1383 -35.1542 -34.1707 -33.1879 -32.1193 -30.4306 -28.7578 -27.0851 -25.4126 -23.5435 -22.0458 -20.5825 -19.1175 -17.657 -15.9997 -14.6888 -13.2056 -11.7227 -10.24 -8.59415 -7.49778 -6.56559 -5.63364 -4.70263 -3.95635 -2.63662 -1.51523 -0.39388 0.791691 2.24949 2.27074 2.4971 2.72333 2.94943 2.92907 2.37287 1.83279 1.29257 0.752221 -0.0903609 -1.33921 -2.20657 -3.07327 -3.94004 -4.81364 -5.90852 -6.89439 -7.88034 -8.88227 -10.1106 -11.4328 -12.5047 -13.5635 -14.6224 -15.6548 -16.7817 -17.8184 -18.8551 -19.9038 -20.9851 -22.0421 -22.9691 -23.8896 -24.8102 -25.6616 -26.5031 -27.2592 -28.0153 -28.777 -29.4831 -30.1663 -30.7393 -31.3071 -31.875 -32.3648 -32.8281 -33.2016 -33.5752 -33.9533 -34.2525 -34.5239 -34.7037 -34.883 -35.0624 -35.1553 -35.2324 -35.2316 -35.2308 -35.2289 -35.1433 -35.0635 -34.91 -34.7562 -34.6024 -34.3783 -34.1636 -33.8882 -33.6128 -33.3376 -33.0015 -32.6743 -32.2988 -31.9254 -31.552 -31.1265 -30.7201 -30.2764 -29.8326 -29.3828 -28.8861 -28.4228 -27.9372 -27.4554 -26.9736 -26.4639 -25.9817 -25.4768 -24.972 -24.4673 -23.9376 -23.4069 -22.8516 -22.2973 -21.743 -21.1657 -20.5481 -19.9116 -19.275 -18.6321 -17.9619 -17.2095 -16.4483 -15.6973 -14.9463 -14.174 -13.2889 -12.3917 -11.4945 -10.5818 -9.63968 -8.51884 -7.40643 -6.31688 -5.22733 -4.12132 -2.79427 -1.47075 -0.147224 1.21729 2.62454 4.35125 6.02533 7.63051 9.2357 10.8618 12.8209 14.7491 16.6773 18.7121 20.8318 23.3796 25.7696 28.0036 30.2376 32.4827 35.0132 37.402 39.7908 42.3962 45.1253 48.0848 50.5888 52.81 55.0312 57.1751 59.0858 60.5773 62.069 63.8637 65.7931 67.2469 67.5015 67.3656 67.2307 66.7814 65.2063 62.5752 59.9481 57.6106 56.0424 54.3573 52.489 49.9662 47.3918 44.7127 41.4313 37.8146 34.2003 31.0263 27.7493 23.4213 18.8553 13.9234 8.99512 4.19422 -2.6314 -9.43354 -16.2313 -23.0248 -29.3101 -39.5964 -47.9602 -55.7486 -63.5061 -71.3124 -71.7394 -71.9944 -72.2495 -72.5045 -72.7485 -82.1478 -91.544 -100.936 -110.424 -117.323 -127.157 -137.983 -148.814 -159.651 -167.237 -177.62 -182.805 -187.851 -192.526 -193.545 -207.654 -217.138 -218.663 -210.994 -204.457 -205.077 -205.713 -206.364 -207.031 -207.544 -208.686 -211.18 -213.674 -216.166 -217.463 -216.908 -214.721 -212.055 -208.017 -205.348 -203.11 -200.854 -198.621 -196.383 -194.906 -188.933 -182.053 -175.171 -168.285 -161.685 -157.188 -152.646 -148.106 -143.566 -139.587 -137.503 -135.895 -134.283 -132.783 -131.452 -131.424 -131.397 -131.369 -131.342 -131.319 -131.704 -129.486 -127.299 -125.144 -121.423 -118.233 -115.654 -113.108 -110.595 -106.613 -110.614 -112.938 -106.787 -100.805 -95.9779 -95.9029 -95.828 -95.753 -95.6781 -95.5946 -95.0928 -94.6022 -94.1117 -93.6215 -93.4613 -91.2757 -89.1017 -86.9399 -84.7909 -80.9098 -78.6643 -76.4118 -74.1523 -71.886 -70.0512 -68.7748 -67.6889 -66.6145 -65.552 -63.9162 -61.4151 -58.9913 -56.6518 -54.5083 -52.6038 -52.2989 -51.9904 -51.6814 -51.3728 -51.0959 -49.7169 -48.3554 -47.0104 -45.7743 -44.8563 -44.1543 -43.6111 -43.379 -42.5236 -41.5157 -41.1912 -40.7906 -39.7533 -38.8316 -37.4476 -36.25 -35.3009 -34.2745 -33.2196 -32.1501 -32.0775 -32.0239 -31.9702 -31.9165 -31.8651 -31.1264 -30.396 -29.6639 -28.9083 -28.0803 -27.7689 -27.7678 -27.7722 -27.8701 -28.1085 -29.8024 -30.1137 -29.2738 -28.3359 -27.0646 -26.8125 -26.5023 -26.206 -25.9133 -25.5639 -25.5919 -25.598 -25.6057 -25.6087 -25.5224 -25.6263 -25.7227 -25.8404 -25.961 -26.1174 -26.2813 -26.4445 -26.6072 -26.7691 -26.9996 -26.9506 -26.884 -26.8173 -26.7504 -26.7212 -25.9938 -25.5487 -25.1006 -24.6491 -24.8918 -24.1581 -23.9824 -23.9503 -23.206 -22.9599 -22.0953 -21.5485 -20.8327 -20.1169 -19.7291 -19.0888 -18.564 -18.0392 -17.5163 -17.1284 -16.4494 -15.9041 -15.3592 -14.8144 -14.4239 -13.723 -13.1663 -12.6096 -12.0539 -11.6528 -10.9791 -10.4529 -9.92799 -9.40315 -9.0333 -8.41988 -7.95062 -7.4814 -7.01204 -6.68206 -6.14599 -5.74176 -5.33653 -4.93133 -4.66437 -4.19909 -3.86925 -3.53944 -3.20968 -3.02963 -2.64072 -2.37911 -2.11754 -1.85601 -1.72114 -1.39544 -1.17252 -0.949623 -0.728709 -0.611985 -0.323092 -0.130336 0.0625045 0.255426 0.365709 0.60573 0.769912 0.934143 1.09842 1.19446 1.39121 1.52719 1.6632 1.79923 1.88156 2.04562 2.15563 2.26567 2.37572 2.43495 2.59014 2.68426 2.7784 2.87254 2.90809 3.06031 3.14721 3.23411 3.32101 3.32768 3.4791 3.55011 3.62111 3.69212 3.66632 3.80374 3.84734 3.88992 3.93255 3.88071 3.99197 4.02022 4.04853 4.07689 4.02045 4.12222 4.14741 4.17262 4.19788 4.13837 4.21934 4.23611 4.25292 4.26979 4.21409 4.28192 4.28723 4.29258 4.29795 4.22981 4.26986 4.26425 4.25867 4.25312 4.19249 4.22513 4.2119 4.19869 4.1855 4.1159 4.12333 4.1035 4.08369 4.06391 4.00564 4.01069 3.98504 3.95941 3.9338 3.86433 3.85016 3.81934 3.78855 3.75778 3.70028 3.68794 3.65449 3.62104 3.58762 3.5234 3.49862 3.46386 3.42912 3.3944 3.34342 3.32115 3.28556 3.24998 3.21442 3.1586 3.12748 3.09131 3.05516 3.01903 2.97049 2.94453 2.90791 2.8713 2.83471 2.78406 2.7506 2.71345 2.67631 2.63919 2.59518 2.56392 2.52654 2.48918 2.45183 2.40531 2.37423 2.33717 2.30012 2.26308 2.22019 2.19044 2.15488 2.11932 2.08378 2.04331 2.01531 1.98199 1.94869 1.9154 1.87942 1.85154 1.8208 1.79007 1.75936 1.72523 1.70108 1.67301 1.64495 1.6169 1.58564 1.56377 1.53833 1.5129 1.48749 1.4604 1.43923 1.41577 1.39232 1.36887 1.34404 1.32337 1.30086 1.27837 1.25588 1.23202 1.21506 1.19354 1.17204 1.15054 1.12681 1.10979 1.08998 1.07019 1.0504 1.03045 1.01719 0.999403 0.981624 0.963852 0.945099 0.930525 0.91448 0.898442 0.88241 0.867216 0.855498 0.840517 0.825543 0.810575 0.793754 0.78191 0.767709 0.753514 0.739325 0.726174 0.716748 0.703848 0.690954 0.678066 0.664223 0.653821 0.642003 0.63019 0.618382 0.607169 0.600991 0.58985 0.578714 0.567583 0.554798 0.546893 0.536869 0.52685 0.516835 0.508623 0.505827 0.497439 0.489054 0.480674 0.471309 0.465723 0.458727 0.451736 0.444765 0.439679 0.439034 0.432854 0.426652 0.420453 0.412726 0.40932 0.404001 0.398685 0.393443 0.390869 0.391736 0.387521 0.38323 0.378942 0.373625 0.371164 0.367344 0.363526 0.359833 0.358506 0.360815 0.357475 0.354004 0.350535 0.345707 0.344599 0.341824 0.339051 0.336456 0.336502 0.340173 0.338383 0.336416 0.334452 0.331514 0.331314 0.329885 0.328459 0.327242 0.328819 0.332657 0.331538 0.330205 0.328875 0.326354 0.326279 0.324775 0.323273 0.322023 0.323665 0.327417 0.326269 0.324868 0.323469 0.321174 0.320927 0.319584 0.318243 0.317183 0.318782 0.322676 0.321503 0.32004 0.318579 0.316104 0.315948 0.314594 0.313241 0.312218 0.314177 0.318638 0.318025 0.317081 0.316138 0.314409 0.314741 0.314132 0.313524 0.313263 0.315929 0.320553 0.320317 0.319733 0.319149 0.317708 0.318124 0.317538 0.316954 0.316741 0.319619 0.32404 0.323883 0.323357 0.322832 0.321613 0.321718 0.321011 0.320304 0.319981 0.322588 0.326547 0.325958 0.324986 0.324014 0.322318 0.322074 0.320997 0.319921 0.319241 0.321491 0.325088 0.324393 0.323313 0.322234 0.320556 0.32007 0.318895 0.317722 0.316932 0.318922 0.321734 0.320596 0.319081 0.317566 0.315437 0.314081 0.312028 0.309975 0.308307 0.309341 0.311009 0.308895 0.306403 0.303911 0.300897 0.298562 0.295637 0.292712 0.290165 0.290157 0.290705 0.287608 0.284138 0.280669 0.276676 0.273247 0.269232 0.265217 0.261585 0.260479 0.259918 0.255815 0.251335 0.246855 0.241923 0.23746 0.232493 0.227526 0.222929 0.220724 0.218645 0.213332 0.207665 0.201999 0.195888 0.189891 0.183403 0.176916 0.170768 0.166787 0.162634 0.155644 0.148337 0.141031 0.133331 0.125567 0.117374 0.109181 0.101282 0.0951737 0.0886699 0.0797725 0.0706107 0.061449 0.0519049 0.0424248 0.0325327 0.0226407 0.0129856 0.00469558 -0.00368411 -0.0139499 -0.0244198 -0.0348895 -0.0457038 -0.0555319 -0.0657236 -0.0759151 -0.0859091 -0.0948085 -0.102871 -0.113008 -0.123384 -0.133759 -0.144472 -0.151587 -0.159059 -0.166531 -0.173574 -0.177864 -0.182973 -0.192352 -0.202272 -0.212191 -0.222522 -0.183143 -0.144148 -0.105153 -0.0662278 -0.0282774 0.0321187 0.0913445 0.150571 0.206212 0.237501 0.264402 0.290639 0.316876 0.343113 0.38073 0.431301 0.480647 0.529994 0.579341 0.67647 0.462553 0.227617 -0.00731924 -0.242255 -0.477549 -0.543768 -0.609917 -0.676065 -0.742214 -0.79839 -0.873048 -0.948389 -1.02373 -1.09907 -1.09498 -1.14744 -1.19962 -1.2518 -1.30398 -1.3443 -0.873704 -0.403052 0.0676 0.538252 0.954966 0.942077 0.929132 0.916188 0.903243 0.890986 0.800589 0.710171 0.619753 0.529335 0.441689 0.390139 0.338583 0.287026 0.235469 0.185373 0.157669 0.151294