# vtk DataFile Version 2.0
track0
ASCII
DATASET POLYDATA
POINTS 20502 float
-1.001 -0.05 0.0011
-1.00079 -0.05 0.0011
-1.00058 -0.0500001 0.0011
-1.00038 -0.0500001 0.0011
-1.00017 -0.0500002 0.00110001
-0.999962 -0.0500002 0.00110001
-0.98746 -0.0500028 0.00110016
-0.974958 -0.0500075 0.00109998
-0.962456 -0.0500123 0.00109981
-0.949954 -0.0500171 0.00109963
-0.937452 -0.0500218 0.00109946
-0.924948 -0.0500221 0.00109968
-0.912445 -0.0500274 0.00109975
-0.899941 -0.0500327 0.00109983
-0.887437 -0.0500379 0.0010999
-0.874933 -0.0500432 0.00109998
-0.862428 -0.0500436 0.0011003
-0.849922 -0.0500496 0.00110053
-0.837416 -0.0500556 0.00110077
-0.82491 -0.0500616 0.00110101
-0.812404 -0.0500676 0.00110125
-0.799896 -0.0500717 0.00110156
-0.787388 -0.0500787 0.00110185
-0.774879 -0.0500856 0.00110215
-0.762371 -0.0500926 0.00110245
-0.749862 -0.0500995 0.00110274
-0.737351 -0.0501047 0.00110301
-0.724839 -0.0501131 0.00110329
-0.712327 -0.0501215 0.00110357
-0.699816 -0.0501299 0.00110386
-0.687304 -0.0501383 0.00110414
-0.674789 -0.0501393 0.00110434
-0.662273 -0.0501499 0.00110453
-0.649757 -0.0501604 0.00110472
-0.637242 -0.0501709 0.00110491
-0.624726 -0.0501814 0.0011051
-0.612206 -0.0501901 0.001105
-0.599685 -0.0502038 0.00110498
-0.587165 -0.0502175 0.00110495
-0.574644 -0.0502312 0.00110492
-0.562124 -0.0502449 0.0011049
-0.549598 -0.0502567 0.00110433
-0.537072 -0.0502759 0.00110376
-0.524546 -0.050295 0.00110318
-0.51202 -0.0503141 0.0011026
-0.499494 -0.0503332 0.00110203
-0.486962 -0.0503506 0.00110051
-0.47443 -0.0503811 0.00109872
-0.461898 -0.0504115 0.00109694
-0.449366 -0.0504419 0.00109516
-0.436834 -0.0504722 0.00109338
-0.424293 -0.0504775 0.00108871
-0.411752 -0.0505334 0.00108204
-0.399211 -0.050589 0.00107541
-0.386669 -0.0506442 0.00106883
-0.374128 -0.0506991 0.00106228
-0.367853 -0.0507211 0.00105708
-0.361578 -0.050776 0.00105283
-0.355302 -0.0508308 0.0010486
-0.349027 -0.0508853 0.00104438
-0.342751 -0.0509395 0.00104018
-0.336478 -0.0509763 0.00103484
-0.330205 -0.0510493 0.00103034
-0.323932 -0.051122 0.00102587
-0.317659 -0.0511944 0.00102141
-0.311385 -0.0512664 0.00101698
-0.305109 -0.0513165 0.00101069
-0.298833 -0.051416 0.00100509
-0.292557 -0.051515 0.000999515
-0.286282 -0.0516134 0.000993974
-0.280004 -0.0517113 0.000988463
-0.273728 -0.0517771 0.000980914
-0.267453 -0.0519197 0.000973474
-0.261178 -0.0520611 0.000966092
-0.254904 -0.0522014 0.000958768
-0.248625 -0.0523407 0.000951497
-0.242358 -0.0524315 0.000942194
-0.236096 -0.0526581 0.000931342
-0.229833 -0.052882 0.000920619
-0.22357 -0.0531033 0.000910024
-0.217295 -0.0533223 0.000899535
-0.211049 -0.0534603 0.000887795
-0.204812 -0.0538325 0.000873389
-0.198575 -0.0541984 0.000859225
-0.192338 -0.0545583 0.000845298
-0.186067 -0.054914 0.00083153
-0.182944 -0.0550237 0.000825726
-0.179828 -0.0552568 0.000820906
-0.176711 -0.0554885 0.000816115
-0.173595 -0.0557188 0.000811352
-0.170452 -0.0559497 0.000806578
-0.167328 -0.0560679 0.000798516
-0.164212 -0.0563181 0.000795618
-0.161096 -0.0565673 0.00079273
-0.157979 -0.0568157 0.000789854
-0.154833 -0.0570655 0.00078696
-0.151687 -0.0571934 0.000784928
-0.14855 -0.0574739 0.000783608
-0.145413 -0.057754 0.00078229
-0.142277 -0.0580335 0.000780974
-0.139104 -0.0583159 0.000779645
-0.135929 -0.0584563 0.000779647
-0.132767 -0.058776 0.000780573
-0.129603 -0.059084 0.000781612
-0.126438 -0.0593716 0.000782842
-0.123238 -0.0596429 0.000784268
-0.120025 -0.0598023 0.000786729
-0.11682 -0.0600727 0.000790798
-0.113613 -0.0603203 0.000795195
-0.110405 -0.0605469 0.0007999
-0.107188 -0.0607543 0.000804911
-0.107097 -0.0607596 0.000805058
-0.107006 -0.0607649 0.000805209
-0.106916 -0.0607702 0.000805363
-0.106825 -0.0607756 0.00080552
-0.106738 -0.0607807 0.000805674
-0.103576 -0.0609676 0.000811349
-0.100417 -0.0611946 0.00081962
-0.0972594 -0.0614358 0.000827503
-0.0941027 -0.0616918 0.000834977
-0.0909423 -0.0619632 0.000842031
-0.0876987 -0.0621932 0.000851288
-0.0844634 -0.0625197 0.000858537
-0.0812303 -0.0628676 0.000865194
-0.0779992 -0.0632333 0.000870898
-0.0747613 -0.0635868 0.000876653
-0.0716062 -0.0637423 0.000886306
-0.0684643 -0.0640699 0.000890475
-0.0653268 -0.064437 0.000893405
-0.0621894 -0.0648053 0.000896344
-0.0590605 -0.065128 0.000900754
-0.0560849 -0.0652714 0.000910259
-0.0531182 -0.065543 0.000912862
-0.050156 -0.0658596 0.000913017
-0.0471939 -0.0661762 0.000913173
-0.0442272 -0.0664764 0.000919666
-0.0412848 -0.0667319 0.000942728
-0.038343 -0.0669956 0.000948898
-0.0354015 -0.0672619 0.000947362
-0.0324599 -0.0675279 0.000945828
-0.0295161 -0.0677791 0.000954027
-0.0265399 -0.0680037 0.000983427
-0.0235628 -0.0682189 0.000990279
-0.0205853 -0.068427 0.000984677
-0.0176076 -0.0686339 0.000979104
-0.0146328 -0.068797 0.000978133
-0.0116209 -0.0688806 0.000985835
-0.00860988 -0.0689895 0.000981942
-0.00559934 -0.0691112 0.000971801
-0.00258875 -0.0692318 0.000961754
0.000425332 -0.0693434 0.000965207
0.00346065 -0.069436 0.000991386
0.00649698 -0.069492 0.000994155
0.00953365 -0.0695224 0.00098131
0.0125703 -0.0695525 0.000968616
0.0156022 -0.0695781 0.000969807
0.0186449 -0.0695966 0.000992806
0.0216874 -0.0695591 0.000994654
0.0247294 -0.0694883 0.00098182
0.0277713 -0.0694183 0.000969136
0.0308138 -0.0693531 0.000968743
0.0338436 -0.0693003 0.000987767
0.0368716 -0.0691811 0.0009885
0.0398979 -0.0690267 0.000976855
0.0429244 -0.068874 0.000965334
0.0459573 -0.0687567 0.000955614
0.0489754 -0.0687071 0.000949334
0.0519887 -0.0685291 0.000941172
0.0549977 -0.0682903 0.000932149
0.058007 -0.0680536 0.000923204
0.0610268 -0.0678667 0.000914002
0.0640605 -0.0677916 0.000904149
0.0670863 -0.0675589 0.000895048
0.0701066 -0.0672649 0.000886299
0.0731273 -0.0669734 0.00087763
0.0761581 -0.066704 0.000870886
0.0792633 -0.0664859 0.000869182
0.0823595 -0.0661649 0.000861603
0.0854523 -0.0658124 0.000852147
0.0885454 -0.0654635 0.000842787
0.0916635 -0.0651372 0.000833699
0.0948237 -0.0648872 0.000825469
0.097976 -0.0645521 0.000812439
0.101127 -0.0642062 0.000798718
0.104279 -0.0638658 0.000785213
0.107455 -0.0635453 0.000771754
0.110646 -0.0634409 0.000757571
0.113826 -0.0631513 0.000742009
0.117007 -0.0628722 0.000726851
0.12019 -0.0626128 0.000712279
0.123401 -0.0623702 0.000698149
0.126587 -0.0622175 0.000686124
0.129771 -0.0620253 0.000673571
0.132955 -0.0618473 0.000661466
0.13614 -0.0616826 0.000649792
0.13933 -0.0615307 0.00063852
0.140845 -0.0614728 0.000633533
0.142361 -0.0614122 0.000628734
0.143877 -0.0613552 0.000624131
0.145392 -0.0613001 0.000619596
0.147024 -0.061243 0.000614785
0.148653 -0.0611882 0.000610059
0.150281 -0.0611307 0.000605458
0.15191 -0.0610704 0.000600985
0.153538 -0.0610071 0.000596641
0.155168 -0.0609407 0.000592426
0.158315 -0.0608386 0.000583623
0.161462 -0.060706 0.000577065
0.164607 -0.0605631 0.000570916
0.167753 -0.0604091 0.000565191
0.170905 -0.0602429 0.000559893
0.174044 -0.0601536 0.000552546
0.177179 -0.0599826 0.000548457
0.180313 -0.0597996 0.000544713
0.183446 -0.0596043 0.000541314
0.186597 -0.0594092 0.000537917
0.189732 -0.0593156 0.000538003
0.192862 -0.0591399 0.000535085
0.195993 -0.0589652 0.000532183
0.199124 -0.0587914 0.000529297
0.202269 -0.0586178 0.000526413
0.205402 -0.0585347 0.000526544
0.208532 -0.0583799 0.000523248
0.211662 -0.058226 0.000519973
0.214793 -0.0580731 0.000516718
0.217933 -0.0579206 0.000513473
0.224191 -0.0578001 0.000504797
0.230446 -0.0575685 0.000504395
0.2367 -0.0573372 0.000503994
0.242955 -0.057106 0.000503593
0.249221 -0.0568746 0.000503191
0.255492 -0.0567708 0.000513633
0.261762 -0.0566268 0.000511906
0.268032 -0.0564832 0.000510185
0.274302 -0.0563402 0.00050847
0.280575 -0.0561975 0.00050676
0.286863 -0.0561518 0.000503069
0.293151 -0.0560577 0.000500506
0.299439 -0.055964 0.000497956
0.305727 -0.0558708 0.00049542
0.312016 -0.0557781 0.000492896
0.318314 -0.0557406 0.000497612
0.324611 -0.0556697 0.000494705
0.330908 -0.0555993 0.000491815
0.337205 -0.0555292 0.000488941
0.343503 -0.0554596 0.000486085
0.349802 -0.0554329 0.000482514
0.356101 -0.055376 0.000479492
0.3624 -0.0553195 0.00047649
0.368699 -0.0552633 0.000473506
0.374999 -0.0552075 0.00047054
0.381289 -0.0551851 0.000467072
0.387579 -0.055137 0.000464162
0.393869 -0.0550891 0.00046127
0.400159 -0.0550415 0.000458395
0.406449 -0.0549943 0.000455539
0.412727 -0.0549749 0.000452325
0.419004 -0.0549327 0.000449611
0.425282 -0.0548907 0.000446912
0.431559 -0.054849 0.00044423
0.437837 -0.0548076 0.000441564
0.4441 -0.0547902 0.000438709
0.450362 -0.0547526 0.000436257
0.456624 -0.0547152 0.000433819
0.462887 -0.054678 0.000431395
0.46915 -0.054641 0.000428984
0.475399 -0.0546252 0.000426585
0.481649 -0.0545914 0.00042454
0.487898 -0.0545577 0.000422505
0.494148 -0.0545242 0.00042048
0.500398 -0.0544908 0.000418465
0.506641 -0.0544742 0.000420035
0.512885 -0.0544432 0.000418405
0.519128 -0.0544123 0.000416781
0.525371 -0.0543815 0.000415164
0.531614 -0.0543509 0.000413553
0.537853 -0.0543372 0.000412202
0.544092 -0.0543087 0.000411105
0.550331 -0.0542803 0.000410011
0.55657 -0.054252 0.000408919
0.562809 -0.0542238 0.000407831
0.569041 -0.0542095 0.000409558
0.575273 -0.054183 0.000408821
0.581505 -0.0541566 0.000408086
0.587737 -0.0541302 0.000407352
0.593969 -0.0541039 0.000406619
0.600196 -0.0540914 0.000406205
0.606422 -0.0540669 0.000405742
0.612648 -0.0540423 0.00040528
0.618874 -0.0540178 0.000404819
0.6251 -0.0539934 0.000404357
0.631325 -0.0539808 0.000406272
0.637551 -0.0539578 0.000406026
0.643777 -0.0539349 0.00040578
0.650002 -0.0539119 0.000405535
0.656228 -0.053889 0.000405289
0.66246 -0.0538774 0.000405511
0.668691 -0.0538559 0.000405442
0.674923 -0.0538345 0.000405372
0.681154 -0.053813 0.000405302
0.687386 -0.0537916 0.000405233
0.693627 -0.0537804 0.000405697
0.699869 -0.0537603 0.000405762
0.70611 -0.0537403 0.000405826
0.712352 -0.0537203 0.000405891
0.718593 -0.0537002 0.000405955
0.724846 -0.0536895 0.000406609
0.731099 -0.0536708 0.000406742
0.737352 -0.0536522 0.000406874
[...]
POINT_DATA 20502
 FIELD attributes 1
U 3 20502 float
19.9505 	-0.00433325 	0.000129159 19.9512 	-0.0042831 	0.00015152 19.9518 	-0.00423295 	0.000173881 19.9525 	-0.0041828 	0.000196242 19.9531 	-0.00413265 	0.000218603 19.9537 	-0.0040825 	0.000240965 19.9083 	-0.00758978 	-0.000279131 19.9083 	-0.00758858 	-0.000279086 19.9083 	-0.00758737 	-0.000279042 19.9083 	-0.00758616 	-0.000278997 19.9495 	-0.000491376 	0.000351865 19.8977 	-0.00838107 	0.000118985 19.8977 	-0.00838164 	0.000118993 19.8977 	-0.00838221 	0.000119001 19.8977 	-0.00838278 	0.000119009 19.9439 	-0.000662816 	0.000507126 19.8858 	-0.0095191 	0.000378087 19.8858 	-0.00952116 	0.000378169 19.8858 	-0.00952322 	0.000378251 19.8858 	-0.00952527 	0.000378332 19.9383 	-0.00660664 	0.000492606 19.872 	-0.0110327 	0.000470402 19.872 	-0.0110356 	0.000470528 19.8719 	-0.0110386 	0.000470655 19.8719 	-0.0110416 	0.000470781 19.9311 	-0.00825492 	0.00042124 19.8556 	-0.013334 	0.000450076 19.8556 	-0.0133374 	0.000450192 19.8555 	-0.0133408 	0.000450308 19.8555 	-0.0133442 	0.000450423 19.9209 	-0.0016336 	0.000310409 19.8359 	-0.0166502 	0.000301438 19.8358 	-0.016653 	0.00030149 19.8358 	-0.0166559 	0.000301542 19.8358 	-0.0166588 	0.000301594 19.9126 	-0.0137925 	-0.000150781 19.8106 	-0.0217033 	-4.1416e-05 19.8106 	-0.0217027 	-4.14151e-05 19.8106 	-0.0217022 	-4.14141e-05 19.8107 	-0.0217017 	-4.14131e-05 19.8995 	-0.0187742 	-0.000899063 19.7741 	-0.0301831 	-0.000909389 19.7742 	-0.0301673 	-0.000908915 19.7743 	-0.0301516 	-0.000908441 19.7744 	-0.0301358 	-0.000907967 19.8792 	-0.0276903 	-0.00241327 19.7085 	-0.0479237 	-0.00281059 19.7089 	-0.0478458 	-0.00280603 19.7094 	-0.0477681 	-0.00280147 19.7099 	-0.0476906 	-0.00279692 19.8231 	-0.00831762 	-0.00738302 19.5725 	-0.0872739 	-0.0104073 19.5751 	-0.0867394 	-0.0103435 19.5777 	-0.0862081 	-0.0102802 19.5803 	-0.0856803 	-0.0102172 19.7131 	-0.06921 	-0.0163245 19.4459 	-0.170275 	-0.0131751 19.4482 	-0.16959 	-0.0131221 19.4504 	-0.168908 	-0.0130694 19.4526 	-0.168229 	-0.0130168 19.7264 	-0.115638 	-0.0168074 19.4287 	-0.226162 	-0.0139211 19.4312 	-0.22518 	-0.0138607 19.4336 	-0.224202 	-0.0138005 19.4361 	-0.223228 	-0.0137405 19.7302 	-0.157316 	-0.0197595 19.4144 	-0.307977 	-0.0173394 19.4177 	-0.306269 	-0.0172433 19.4209 	-0.304571 	-0.0171477 19.4241 	-0.302882 	-0.0170526 19.7306 	-0.206823 	-0.0237317 19.381 	-0.440262 	-0.0229797 19.3857 	-0.436922 	-0.0228054 19.3903 	-0.433609 	-0.0226324 19.3949 	-0.430322 	-0.0224609 19.7249 	-0.285735 	-0.0292835 19.2994 	-0.698364 	-0.0334423 19.3075 	-0.69032 	-0.0330571 19.3155 	-0.682373 	-0.0326765 19.3234 	-0.674519 	-0.0323005 19.7139 	-0.435435 	-0.0370531 19.26 	-1.14946 	-0.0444899 19.272 	-1.13081 	-0.043768 19.2838 	-1.11247 	-0.0430581 19.2954 	-1.09444 	-0.0423602 19.7275 	-0.693357 	-0.0366667 19.4554 	-1.45519 	-0.0300913 19.4586 	-1.44669 	-0.0299157 19.4617 	-1.43825 	-0.0297411 19.4649 	-1.42986 	-0.0295675 19.7 	-0.745347 	-0.0508443 19.593 	-1.57302 	-0.0182205 19.5944 	-1.56731 	-0.0181544 19.5959 	-1.56162 	-0.0180885 19.5974 	-1.55596 	-0.0180229 19.8647 	-0.807539 	-0.0128275 19.7476 	-1.76617 	-0.0083134 19.7481 	-1.7632 	-0.00829941 19.7485 	-1.76024 	-0.00828545 19.7489 	-1.75728 	-0.00827151 19.9433 	-0.882393 	1.21496e-05 19.9266 	-2.01462 	0.00583908 19.9343 	-1.9408 	0.00654476 19.9477 	-1.81247 	0.00775376 19.9602 	-1.69221 	0.00889485 20.0322 	-0.993982 	0.0153412 20.1531 	-1.6999 	0.0255902 20.1521 	-1.5562 	0.0276272 20.1513 	-1.42285 	0.0295544 20.1507 	-1.29913 	0.0313797 20.1493 	-1.16997 	0.0326997 20.1563 	-1.18724 	0.0336385 20.16 	-1.18851 	0.0342854 20.1637 	-1.18979 	0.0349325 20.1673 	-1.19106 	0.0355797 20.1709 	-1.1923 	0.0362042 20.3316 	-1.46065 	0.0532326 20.3528 	-1.55507 	0.0508086 20.3746 	-1.65197 	0.0482406 20.397 	-1.75138 	0.0455246 20.3274 	-1.4417 	0.0580127 20.6797 	-2.08672 	0.0463339 20.7482 	-2.2326 	0.0427253 20.7873 	-2.35308 	0.0366974 20.7616 	-2.26662 	0.0368951 20.3711 	-1.00393 	0.0623263 21.027 	-2.19213 	0.0279057 21.1851 	-2.47925 	0.0197814 21.189 	-2.48741 	0.0198465 21.0421 	-2.16969 	0.0296589 20.4952 	-0.987939 	0.0654693 21.2439 	-1.94487 	0.0186371 21.5221 	-2.30011 	0.00113319 21.5224 	-2.3005 	0.00113339 21.4237 	-2.16802 	0.0468839 21.1771 	-1.83849 	0.16598 21.5863 	-1.93529 	0.0452781 21.7699 	-1.97107 	-0.0113702 21.767 	-1.96788 	-0.0113518 21.62 	-1.84502 	0.060221 21.3319 	-1.61016 	0.210725 21.7371 	-1.57121 	0.0500292 21.9489 	-1.53359 	-0.0412943 21.9379 	-1.52492 	-0.0410607 21.5032 	-1.17826 	-0.00702303 20.7487 	-0.576332 	0.0530639 21.556 	-0.779489 	-0.0278719 22.0067 	-0.889621 	-0.0741326 21.986 	-0.880433 	-0.0733669 21.7897 	-0.806875 	0.0249616 21.3942 	-0.652942 	0.184517 21.8662 	-0.403504 	0.0199413 22.0823 	-0.220993 	-0.0934025 22.0554 	-0.218138 	-0.0921957 21.8305 	-0.184977 	0.00857397 21.3914 	-0.129424 	0.161695 21.8629 	0.269046 	0.0132786 22.0757 	0.514014 	-0.093139 22.049 	0.507381 	-0.0919372 21.812 	0.466963 	-0.00281636 21.3573 	0.37225 	0.134104 21.7981 	0.858663 	0.00527472 21.9975 	1.12192 	-0.0846466 21.974 	1.1087 	-0.0836494 21.5329 	0.832966 	-0.0690065 20.7486 	0.341142 	-0.0431765 21.4515 	1.26697 	-0.0581039 21.8006 	1.73009 	-0.0653736 21.7833 	1.7135 	-0.0647468 21.4279 	1.32602 	-0.0652991 20.6841 	0.51246 	-0.0671795 21.3516 	1.6416 	-0.0642218 21.6237 	2.10525 	-0.0626302 21.6078 	2.08467 	-0.062018 21.4518 	1.90684 	-0.0477285 21.0738 	1.48026 	-0.0115634 21.3685 	2.21572 	-0.0523124 21.4566 	2.44528 	-0.0655993 21.4407 	2.41845 	-0.0648794 21.2978 	2.22851 	-0.0620751 20.8527 	1.65 	-0.0543064 21.094 	2.24195 	-0.0871918 21.1228 	2.3187 	-0.0919768 21.1038 	2.27953 	-0.0904233 21.035 	2.12316 	-0.0891512 20.4131 	0.667322 	-0.0907155 20.7827 	1.89319 	-0.101712 20.748 	1.82028 	-0.0988683 20.6793 	1.68548 	-0.0946843 20.6138 	1.55682 	-0.0906829 20.299 	0.973044 	-0.0766263 20.407 	1.23179 	-0.0804656 20.3649 	1.13888 	-0.0774107 20.3249 	1.05042 	-0.0744903 20.2868 	0.966211 	-0.0716987 20.1943 	0.771744 	-0.0664581 20.1963 	0.80777 	-0.0639491 20.1699 	0.759065 	-0.0612482 20.1593 	0.731944 	-0.0603161 20.1489 	0.70544 	-0.0594025 20.138 	0.67756 	-0.0584387 20.1422 	0.711247 	-0.0569013 20.1465 	0.746372 	-0.0553394 20.1511 	0.782993 	-0.0537517 20.1559 	0.821168 	-0.0521369 20.133 	0.652918 	-0.0563134 20.1205 	0.848193 	-0.0419368 20.1269 	0.914321 	-0.0393386 20.1337 	0.985443 	-0.0366462 20.1412 	1.06192 	-0.0338511 20.0911 	0.571674 	-0.0470358 20.1031 	1.09682 	-0.0262192 20.1094 	1.1743 	-0.0240211 20.1158 	1.25329 	-0.02182 20.1151 	1.24547 	-0.0216838 19.9826 	0.596731 	0.000544638 20.0563 	1.1254 	-0.0186916 20.0559 	1.1193 	-0.0185902 20.0556 	1.11323 	-0.0184894 20.0553 	1.10719 	-0.0183891 19.9634 	0.529731 	0.000831682 20.0158 	0.990074 	-0.0210738 20.0157 	0.983877 	-0.0209419 20.0157 	0.977719 	-0.0208108 20.0156 	0.971599 	-0.0206805 19.9981 	0.385222 	-0.0277261 19.9205 	0.737424 	-0.00127966 19.9206 	0.736837 	-0.00127864 19.9206 	0.736251 	-0.00127762 19.9207 	0.735665 	-0.0012766 19.8456 	0.3287 	0.0330452 19.935 	0.457885 	-0.00548995 19.9352 	0.456345 	-0.0054715 19.9354 	0.454811 	-0.0054531 19.9357 	0.453282 	-0.00543477 19.9829 	0.145255 	-0.0117313 19.9688 	0.299002 	-0.0081384 19.969 	0.297479 	-0.00809694 19.9691 	0.295964 	-0.00805569 19.9693 	0.294456 	-0.00801466 19.9283 	0.118596 	0.0149249 20.0027 	0.225134 	-0.0092342 20.0026 	0.223819 	-0.00918026 20.0026 	0.222512 	-0.00912662 20.0026 	0.221212 	-0.0090733 20.0084 	0.0847118 	-0.0113412 20.0363 	0.18096 	-0.00961192 20.036 	0.179826 	-0.00955173 20.0358 	0.1787 	-0.00949191 20.0356 	0.177581 	-0.00943246 20.0223 	0.0710331 	-0.0110382 20.0674 	0.153661 	-0.0092851 20.067 	0.152703 	-0.00922724 20.0666 	0.151752 	-0.00916975 20.0662 	0.150806 	-0.00911261 20.0354 	0.0619423 	-0.010256 20.0927 	0.13507 	-0.00868836 20.0922 	0.13426 	-0.00863622 20.0916 	0.133454 	-0.00858439 20.0911 	0.132653 	-0.00853287 20.0469 	0.0554786 	-0.00913887 20.1166 	0.120872 	-0.00787535 20.1159 	0.120197 	-0.00783134 20.1153 	0.119525 	-0.00778757 20.1146 	0.118857 	-0.00774405 20.0564 	0.0505428 	-0.00769862 20.1323 	0.109041 	-0.00658633 20.1316 	0.108519 	-0.00655476 20.131 	0.107998 	-0.00652335 20.1304 	0.107481 	-0.00649208 20.0354 	0.053229 	0.0050388 20.1431 	0.100068 	-0.00525857 20.1426 	0.0996797 	-0.00523816 20.142 	0.0992929 	-0.00521784 20.1415 	0.0989076 	-0.00519759 20.0686 	0.044048 	-0.00434508 20.1485 	0.0919099 	-0.00354315 20.1481 	0.0916653 	-0.00353372 20.1478 	0.0914213 	-0.00352431 20.1474 	0.091178 	-0.00351493 20.0473 	0.0459559 	0.00555525 20.1512 	0.0855801 	-0.00238216 20.151 	0.0854261 	-0.00237787 20.1507 	0.0852725 	-0.0023736 20.1504 	0.0851191 	-0.00236933 20.0727 	0.0401953 	-0.00133444 20.1498 	0.0794855 	-0.00149734 20.1497 	0.079395 	-0.00149564 20.1495 	0.0793045 	-0.00149394 20.1493 	0.0792142 	-0.00149223 20.0504 	0.0404003 	0.00616552 20.1466 	0.0743597 	-0.000795668 20.1465 	0.0743147 	-0.000795186 20.1464 	0.0742698 	-0.000794705 20.1463 	0.0742248 	-0.000794224 20.0707 	0.0374175 	0.000715391 20.1405 	0.069336 	-0.000225162 20.1405 	0.0693241 	-0.000225123 20.1405 	0.0693121 	-0.000225084 20.1405 	0.0693002 	-0.000225046 20.0679 	0.036004 	0.00149411 20.1328 	0.0646286 	0.000207759 20.1328 	0.0646388 	0.000207792 20.1329 	0.0646491 	0.000207825 20.1329 	0.0646594 	0.000207858 20.0643 	0.0345309 	0.00209927 20.1238 	0.0599883 	0.000425965 20.1238 	0.0600078 	0.000426104 20.1239 	0.0600273 	0.000426243 20.1239 	0.0600469 	0.000426381 20.0602 	0.0328292 	0.0025204 20.1142 	0.0550243 	0.00046798 20.1142 	0.0550439 	0.000468148 20.1143 	0.0550636 	0.000468315 20.1143 	0.0550833 	0.000468482 20.0558 	0.0309078 	0.00286436 20.1043 	0.0500909 	0.000563856 20.1043 	0.0501124 	0.000564098 20.1044 	0.0501339 	0.00056434 20.1044 	0.0501554 	0.000564582 20.0318 	0.0271874 	0.00578533 20.0937 	0.0452569 	0.000719404 20.0937 	0.0452815 	0.000719796 20.0938 	0.0453061 	0.000720187 20.0938 	0.0453308 	0.000720579 20.0457 	0.0267874 	0.00364422 20.0812 	0.0403268 	0.000877255 20.0812 	0.0403534 	0.000877834 20.0813 	0.0403801 	0.000878413 20.0813 	0.0404067 	0.000878993 20.0393 	0.0243865 	0.00403815 20.0665 	0.034849 	0.00098755 20.0666 	0.0348747 	0.000988281 20.0666 	0.0349005 	0.000989012 20.0667 	0.0349264 	0.000989743 20.0318 	0.0216322 	0.00436954 20.0499 	0.0295329 	0.00107696 20.0499 	0.0295566 	0.00107783 20.05 	0.0295804 	0.00107869 20.05 	0.0296042 	0.00107956 20.0227 	0.0182791 	0.00471201 20.0303 	0.0226029 	0.00134149 20.0303 	0.0226254 	0.00134283 20.0303 	0.022648 	0.00134416 20.0304 	0.0226706 	0.0013455 20.0115 	0.0140507 	0.00523813 20.003 	0.0144041 	0.0018319 20.0031 	0.0144236 	0.00183438 20.0031 	0.0144432 	0.00183687 20.0031 	0.0144628 	0.00183936 19.9741 	0.013791 	0.0058637 19.9679 	0.00362386 	0.00234095 19.9679 	0.00363009 	0.00234498 19.9678 	0.00363633 	0.00234901 19.9678 	0.00364258 	0.00235305 19.9781 	0.000795771 	0.00667417 19.9223 	-0.0108409 	0.00271721 19.9222 	-0.0108623 	0.00272258 19.922 	-0.0108838 	0.00272796 19.9219 	-0.0109053 	0.00273335 19.9249 	0.0044139 	0.00625718 19.8656 	-0.0316922 	0.00283482 19.8653 	-0.0317568 	0.0028406 19.865 	-0.0318216 	0.00284639 19.8647 	-0.0318865 	0.0028522 19.9244 	-0.0256924 	0.00703145 19.7895 	-0.0610816 	0.00233083 19.7892 	-0.0611827 	0.00233469 19.7888 	-0.061284 	0.00233856 19.7885 	-0.0613854 	0.00234243 19.8885 	-0.0484162 	0.00514409 19.698 	-0.10635 	-3.80673e-05 19.698 	-0.106347 	-3.80663e-05 19.698 	-0.106344 	-3.80653e-05 19.698 	-0.106341 	-3.80642e-05 19.8499 	-0.0817905 	-0.000185627 19.5976 	-0.171451 	-0.00715031 19.5997 	-0.170582 	-0.00711409 19.6017 	-0.169718 	-0.00707806 19.6037 	-0.168858 	-0.00704221 19.8114 	-0.1324 	-0.0101108 19.489 	-0.297443 	-0.0194288 19.4963 	-0.293194 	-0.0191512 19.5035 	-0.289006 	-0.0188777 19.5106 	-0.28488 	-0.0186082 19.7733 	-0.218874 	-0.0239606 19.3752 	-0.49335 	-0.0352644 19.3929 	-0.479369 	-0.034265 19.4101 	-0.465797 	-0.0332949 19.4267 	-0.452621 	-0.0323531 19.6652 	-0.337982 	-0.0556237 19.4616 	-0.748168 	-0.03373 19.47 	-0.736529 	-0.0332053 19.4782 	-0.725075 	-0.0326889 19.4863 	-0.713804 	-0.0321808 19.7121 	-0.358577 	-0.0532797 19.5699 	-0.832352 	-0.0273795 19.5759 	-0.820843 	-0.0270009 19.5817 	-0.809497 	-0.0266277 19.5875 	-0.798311 	-0.0262597 19.8346 	-0.449064 	-0.033398 19.6544 	-0.973254 	-0.0271243 19.6596 	-0.958711 	-0.026719 19.6647 	-0.944388 	-0.0263198 19.6697 	-0.930282 	-0.0259267 19.8901 	-0.517631 	-0.032882 19.7597 	-1.2748 	-0.0218438 19.7629 	-1.2579 	-0.0215543 19.7661 	-1.24123 	-0.0212686 19.7692 	-1.22478 	-0.0209867 19.7864 	-0.823148 	-0.060319 19.9169 	-2.08518 	0.00775014 19.9189 	-1.99494 	0.00503052 19.9305 	-1.50345 	-0.0085565 19.9408 	-1.07811 	-0.019889 20.113 	-1.31882 	-0.0344815 20.1259 	-1.38524 	-0.032298 20.1226 	-1.36735 	-0.0328283 20.1192 	-1.34953 	-0.0333555 20.1159 	-1.33178 	-0.0338798 20.1127 	-1.31487 	-0.0343784 20.2205 	-1.4399 	-0.0191952 20.3332 	-1.58344 	-0.00389107 20.451 	-1.74613 	0.0116012 20.5222 	-1.85486 	0.0204973 20.2474 	-0.848048 	-0.00112678 21.0924 	-2.86576 	-0.00849197 21.0866 	-2.85059 	-0.008447 21.0808 	-2.83549 	-0.00840226 21.0751 	-2.82046 	-0.00835773 20.4387 	-0.974621 	0.0121209 22.1302 	-3.35507 	0.00821527 22.1394 	-3.36945 	0.00825047 22.1485 	-3.38389 	0.00828582 22.094 	-3.2962 	0.010317 20.7993 	-1.21939 	0.0512694 23.0455 	-3.7165 	0.105423 24.5083 	-5.35184 	0.141574 24.4887 	-5.34781 	0.142821 22.6463 	-3.32384 	0.100747 20.9675 	-1.47583 	0.0620516 20.808 	-1.23651 	0.0572595 20.6486 	-0.997222 	0.0524562 20.4892 	-0.757997 	0.0476423 20.3299 	-0.518864 	0.042818 19.4593 	0 	0 19.1807 	-0.408999 	0.0868632 19.4238 	-0.42704 	0.0906947 19.6679 	-0.44564 	0.094645 19.913 	-0.464809 	0.0987162 18.9817 	0 	0 20.1334 	-0.340679 	0.150239 20.2155 	-0.352066 	0.155261 20.1793 	-0.311866 	0.137533 19.8028 	-0.122609 	0.0540706 19.5633 	0 	0 19.8635 	-0.0630111 	0.0198177 20.168 	-0.127242 	0.0400192 20.246 	-0.167689 	0.0442214 20.2888 	-0.204745 	0.0459284 20.2016 	-0.117167 	0.0221441 20.2988 	-0.0983311 	0.0604151 20.3274 	-0.106755 	0.0627241 20.3563 	-0.115258 	0.0650798 20.3854 	-0.123842 	0.0674829 20.087 	-0.104869 	0.0414931 20.3887 	-0.0857158 	0.0762433 20.3848 	-0.0822964 	0.0777235 20.3808 	-0.0788253 	0.0792336 20.3768 	-0.0753016 	0.0807742 20.2519 	-0.00225114 	0.0264806 20.2449 	0.0969887 	0.0775175 20.2085 	0.0862228 	0.0806412 20.1723 	0.0755493 	0.0838376 19.8298 	0.0404924 	0.0474187 19.4137 	0 	0 19.4194 	-0.00102064 	0.00323529 19.4251 	-0.00204121 	0.00647033 19.4308 	-0.00306169 	0.00970512 19.4364 	-0.00408209 	0.0129397 19.3861 	0 	0 20.0446 	0.163568 	0.323916 19.8495 	0.178257 	0.353004 19.6559 	0.194421 	0.385014 19.4639 	0.212224 	0.420269 18.7083 	0 	0 19.9509 	0.531141 	0.254686 19.9666 	0.876351 	0.274795 19.9822 	1.22236 	0.295363 19.9976 	1.56908 	0.316391 20.0222 	2.12703 	0.350915 19.9821 	2.75307 	0.44956 19.9535 	3.23506 	0.525732 19.9803 	2.9508 	0.481793 20.0057 	2.6781 	0.439615 20.0257 	2.46111 	0.40603 20.0255 	2.45781 	0.406138 20.0252 	2.45451 	0.406247 20.025 	2.45122 	0.406356 20.0248 	2.44792 	0.406464 20.0146 	2.4412 	0.402746 20.0174 	2.44125 	0.391248 20.0102 	2.43596 	0.377704 20.0029 	2.43061 	0.36413 19.9957 	2.42521 	0.350524 19.9934 	2.42343 	0.346066 19.9284 	2.41759 	0.287006 19.854 	2.41601 	0.228012 19.7703 	2.4186 	0.169071 19.6774 	2.42527 	0.11017 19.8571 	2.16273 	0.0784998 19.8601 	2.05601 	0.0843009 19.8629 	1.9508 	0.0900891 19.8657 	1.84708 	0.0958649 19.8684 	1.74485 	0.101629 19.5178 	1.54533 	0.0560901 19.7543 	1.82769 	0.0926594 19.6105 	2.05246 	0.123733 19.4669 	2.27481 	0.154746 19.3236 	2.49469 	0.185693 19.1007 	2.83317 	0.233768 18.764 	3.33592 	0.266855 18.4284 	3.82418 	0.303669 18.1063 	4.27555 	0.344356 18.0464 	4.22454 	0.388661 17.9789 	4.0021 	0.468267 18.0346 	4.09191 	0.428488 18.006 	4.12883 	0.437781 17.9604 	4.15739 	0.456609 17.9137 	4.18777 	0.475751 17.8768 	4.20763 	0.491388 17.8736 	4.3134 	0.42383 17.8733 	4.40818 	0.355635 17.8762 	4.49113 	0.286785 18.0605 	4.25971 	0.214198 18.9161 	2.88246 	0.12876 18.361 	4.03373 	0.120317 17.8115 	5.17333 	0.111882 17.667 	5.4125 	0.0933321 17.7472 	4.06431 	0.177277 17.9983 	2.59357 	0.23383 17.9699 	3.85221 	0.125609 17.9584 	4.76823 	0.0446995 18.0158 	4.40726 	0.0602895 18.2304 	3.933 	0.0404692 18.4766 	2.55047 	0.0939125 18.4114 	3.50901 	0.0065844 18.5463 	3.24849 	-0.0272289 18.5966 	3.01222 	-0.0221194 18.6324 	2.795 	-0.0124333 18.675 	2.5285 	-0.000403965 18.6706 	2.5766 	-0.0036071 18.6717 	2.56429 	-0.00279122 18.6729 	2.55205 	-0.0019792 18.674 	2.53988 	-0.00117102 18.6751 	2.52834 	-0.00040394 18.5712 	2.68007 	0.00441158 18.4601 	2.84257 	0.00953712 18.3616 	3.01555 	0.00849259 18.3174 	3.196 	-0.0120375 18.5021 	2.48361 	-0.0175749 18.2834 	3.59555 	-0.0744777 18.1596 	3.82412 	-0.077425 18.0272 	4.06843 	-0.0806539 18.1713 	3.71307 	-0.0906067 18.8554 	2.34402 	-0.0875282 18.8963 	3.2446 	-0.126692 18.7403 	3.50497 	-0.113316 18.6864 	3.2329 	-0.103856 18.6185 	2.97127 	-0.0937421 18.5151 	1.3314 	-0.0926422 18.8097 	2.07843 	-0.0760063 18.8716 	1.7542 	-0.0609299 18.8485 	1.63194 	-0.0520261 18.8257 	1.51891 	-0.0437259 18.6396 	0.96768 	0.000176301 18.815 	1.22998 	-0.0318625 18.788 	1.16958 	-0.0252746 18.7608 	1.11303 	-0.0189952 18.7421 	1.04498 	-0.0125669 18.8036 	0.686313 	0.000277875 18.8287 	0.708274 	-0.000566933 18.826 	0.63646 	-1.58799e-05 18.821 	0.616345 	0.0013817 18.8156 	0.603449 	0.00286937 18.8086 	0.587192 	0.004757 18.8049 	0.609669 	0.00599427 18.8008 	0.633059 	0.00727821 18.7964 	0.657399 	0.00861073 18.7917 	0.682729 	0.00999382 18.8168 	0.5697 	0.0181323 18.7631 	0.673214 	0.0145222 18.759 	0.718979 	0.0167184 18.7542 	0.767922 	0.0190624 18.7488 	0.820263 	0.0215645 18.8078 	0.512443 	0.0343866 18.6976 	0.868112 	0.0306563 18.6983 	0.928078 	0.0321302 18.6993 	0.992024 	0.0337008 18.7004 	1.06021 	0.0353743 18.5957 	0.495787 	0.0221969 18.6753 	0.879498 	0.0291046 18.6597 	0.889849 	0.0294471 18.6439 	0.90033 	0.029794 18.6279 	0.910943 	0.0301452 18.9504 	0.167954 	0.0824777 18.5542 	0.673158 	0.0317382 18.537 	0.681193 	0.0321171 18.5195 	0.689332 	0.0325008 18.5018 	0.697575 	0.0328894 18.5823 	0.153982 	0.021081 18.4767 	0.583072 	0.0249372 18.4631 	0.588267 	0.0251594 18.4494 	0.593512 	0.0253837 18.4356 	0.598807 	0.0256102 18.8603 	0.154234 	0.0600323 18.2945 	0.54403 	0.024629 18.2802 	0.548601 	0.0248359 18.2657 	0.553214 	0.0250447 18.2511 	0.557869 	0.0252555 18.7679 	0.158952 	0.0501059 18.0525 	0.519699 	0.0278424 18.0346 	0.524457 	0.0280972 18.0166 	0.529263 	0.0283547 17.9984 	0.534117 	0.0286148 18.6548 	0.167189 	0.0452695 17.7571 	0.502708 	0.0329069 17.7336 	0.507964 	0.033251 17.7099 	0.513281 	0.033599 17.6859 	0.518662 	0.0339512 18.1129 	0.107011 	-0.0157209 17.4499 	0.482052 	0.0374968 17.4201 	0.48768 	0.0379347 17.39 	0.493385 	0.0383784 17.3594 	0.499166 	0.038828 18.4032 	0.181859 	0.0384064 17.0466 	0.471606 	0.0415961 17.0096 	0.477509 	0.0421167 16.9721 	0.483499 	0.042645 16.934 	0.489577 	0.0431811 18.2398 	0.187867 	0.035867 16.5886 	0.460127 	0.0441935 16.5446 	0.46605 	0.0447624 16.5 	0.472065 	0.0453401 16.4548 	0.478174 	0.0459268 17.6274 	0.0812531 	-0.0276346 16.1384 	0.436393 	0.0413974 16.0926 	0.441567 	0.0418882 16.0462 	0.446817 	0.0423863 15.999 	0.452145 	0.0428917 17.4888 	0.0641405 	-0.0356983 15.7252 	0.397354 	0.0301279 15.6888 	0.40074 	0.0303846 15.652 	0.404163 	0.0306441 15.6549 	0.403344 	0.0305284 17.8018 	0.174001 	0.0102198 15.5225 	0.325299 	0.0101021 15.5827 	0.321383 	0.0101349 15.6419 	0.317537 	0.0101675 15.7 	0.313758 	0.0102002 17.7204 	0.155717 	-0.00377552 15.6425 	0.239714 	-0.0145177 15.7023 	0.237047 	-0.0142404 15.7611 	0.234423 	-0.0139674 15.819 	0.231844 	-0.0136984 17.7176 	0.130927 	-0.017291 15.8307 	0.166753 	-0.0360023 15.8888 	0.164785 	-0.0354796 15.9458 	0.162851 	-0.0349654 16.002 	0.16095 	-0.034459