# vtk DataFile Version 2.0
track0
ASCII
DATASET POLYDATA
POINTS 15780 float
-1.001 -0.05 0.0011
-1.0008 -0.05 0.0011
-1.0006 -0.05 0.0011
-1.0004 -0.05 0.0011
-1.0002 -0.05 0.0011
-1 -0.05 0.0011
-0.9875 -0.05 0.0011
-0.975 -0.05 0.0011
-0.9625 -0.05 0.0011
-0.95 -0.05 0.0011
-0.9375 -0.05 0.00109999
-0.925 -0.05 0.00109999
-0.9125 -0.05 0.00109999
-0.9 -0.05 0.00109999
-0.8875 -0.05 0.00109999
-0.875 -0.05 0.00109999
-0.8625 -0.05 0.00109999
-0.85 -0.05 0.00109999
-0.8375 -0.05 0.00109998
-0.825 -0.0500001 0.00109998
-0.8125 -0.0500001 0.00109998
-0.8 -0.0500001 0.00109998
-0.7875 -0.0500001 0.00109998
-0.775 -0.0500001 0.00109998
-0.7625 -0.0500001 0.00109998
-0.75 -0.0500001 0.00109998
-0.7375 -0.0500001 0.00109997
-0.725 -0.0500001 0.00109997
-0.7125 -0.0500001 0.00109997
-0.7 -0.0500001 0.00109997
-0.6875 -0.0500001 0.00109997
-0.675 -0.0500001 0.00109997
-0.6625 -0.0500001 0.00109997
-0.65 -0.0500001 0.00109996
-0.6375 -0.0500001 0.00109996
-0.625 -0.0500001 0.00109996
-0.6125 -0.0500001 0.00109996
-0.6 -0.0500001 0.00109996
-0.5875 -0.0500001 0.00109996
-0.575 -0.0500001 0.00109996
-0.5625 -0.0500001 0.00109996
-0.55 -0.0500001 0.00109995
-0.5375 -0.0500001 0.00109995
-0.525 -0.0500001 0.00109995
-0.5125 -0.0500001 0.00109995
-0.5 -0.0500001 0.00109995
-0.4875 -0.0500001 0.00109995
-0.475 -0.0500001 0.00109995
-0.4625 -0.0500001 0.00109994
-0.45 -0.0500002 0.00109994
-0.4375 -0.0500002 0.00109994
-0.425 -0.0500002 0.00109994
-0.4125 -0.0500002 0.00109994
-0.4 -0.0500002 0.00109994
-0.3875 -0.0500002 0.00109994
-0.375 -0.0500002 0.00109994
-0.3625 -0.0500002 0.00109993
-0.35 -0.0500002 0.00109993
-0.3375 -0.0500002 0.00109993
-0.325 -0.0500002 0.00109993
-0.3125 -0.0500002 0.00109993
-0.3 -0.0500002 0.00109993
-0.2875 -0.0500002 0.00109993
-0.275 -0.0500002 0.00109993
-0.2625 -0.0500002 0.00109992
-0.25 -0.0500002 0.00109992
-0.2375 -0.0500002 0.00109992
-0.225 -0.0500002 0.00109992
-0.2125 -0.0500002 0.00109992
-0.2 -0.0500002 0.00109992
-0.1875 -0.0500002 0.00109992
-0.175 -0.0500002 0.00109992
-0.1625 -0.0500002 0.00109991
-0.15 -0.0500002 0.00109991
-0.1375 -0.0500002 0.00109991
-0.125 -0.0500002 0.00109991
-0.1125 -0.0500002 0.00109991
-0.1 -0.0500002 0.00109991
-0.0875 -0.0500002 0.00109991
-0.075 -0.0500002 0.00109991
-0.0625 -0.0500002 0.00109991
-0.05 -0.0500003 0.00109991
-0.0375 -0.0500003 0.0010999
-0.025 -0.0500003 0.0010999
-0.0125 -0.0500003 0.0010999
2.10607e-13 -0.0500003 0.0010999
0.0125 -0.0500003 0.0010999
0.025 -0.0500003 0.0010999
0.0375 -0.0500003 0.0010999
0.05 -0.0500003 0.0010999
0.0625 -0.0500003 0.0010999
0.075 -0.0500003 0.0010999
0.0875 -0.0500003 0.0010999
0.1 -0.0500003 0.00109989
0.1125 -0.0500003 0.00109989
0.125 -0.0500003 0.00109989
0.1375 -0.0500003 0.00109989
0.15 -0.0500003 0.00109989
0.1625 -0.0500003 0.00109989
0.175 -0.0500003 0.00109989
0.1875 -0.0500003 0.00109989
0.2 -0.0500003 0.00109989
0.2125 -0.0500003 0.00109989
0.225 -0.0500003 0.00109989
0.2375 -0.0500003 0.00109989
0.25 -0.0500003 0.00109989
0.2625 -0.0500003 0.00109988
0.275 -0.0500003 0.00109988
0.2875 -0.0500003 0.00109988
0.3 -0.0500003 0.00109988
0.3125 -0.0500003 0.00109988
0.325 -0.0500003 0.00109988
0.3375 -0.0500003 0.00109988
0.35 -0.0500003 0.00109988
0.3625 -0.0500003 0.00109988
0.375 -0.0500003 0.00109988
0.3875 -0.0500003 0.00109988
0.4 -0.0500004 0.00109988
0.4125 -0.0500004 0.00109988
0.425 -0.0500004 0.00109988
0.4375 -0.0500004 0.00109988
0.45 -0.0500004 0.00109988
0.4625 -0.0500004 0.00109988
0.475 -0.0500004 0.00109988
0.4875 -0.0500004 0.00109988
0.5 -0.0500004 0.00109988
0.5125 -0.0500004 0.00109988
0.525 -0.0500004 0.00109988
0.5375 -0.0500004 0.00109988
0.55 -0.0500004 0.00109988
0.5625 -0.0500004 0.00109988
0.575 -0.0500004 0.00109987
0.5875 -0.0500004 0.00109987
0.6 -0.0500004 0.00109987
0.6125 -0.0500004 0.00109987
0.625 -0.0500004 0.00109987
0.6375 -0.0500004 0.00109987
0.65 -0.0500004 0.00109987
0.6625 -0.0500004 0.00109987
0.675 -0.0500004 0.00109987
0.6875 -0.0500004 0.00109987
0.7 -0.0500004 0.00109987
0.7125 -0.0500004 0.00109987
0.725 -0.0500004 0.00109987
0.7375 -0.0500004 0.00109987
0.75 -0.0500004 0.00109987
0.7625 -0.0500004 0.00109987
0.775 -0.0500004 0.00109987
0.7875 -0.0500004 0.00109987
0.8 -0.0500004 0.00109987
0.8125 -0.0500004 0.00109987
0.825 -0.0500004 0.00109987
0.8375 -0.0500004 0.00109987
0.85 -0.0500004 0.00109987
0.8625 -0.0500004 0.00109987
0.875 -0.0500004 0.00109987
0.8875 -0.0500004 0.00109987
0.9 -0.0500004 0.00109987
0.9125 -0.0500005 0.00109988
0.925 -0.0500005 0.00109988
0.9375 -0.0500005 0.00109988
0.95 -0.0500005 0.00109988
0.9625 -0.0500005 0.00109988
0.975 -0.0500005 0.00109988
0.9875 -0.0500005 0.00109988
1 -0.0500005 0.00109988
1.0125 -0.0500005 0.00109988
1.025 -0.0500005 0.00109988
1.0375 -0.0500005 0.00109988
1.05 -0.0500005 0.00109988
1.0625 -0.0500005 0.00109988
1.075 -0.0500005 0.00109988
1.0875 -0.0500005 0.00109988
1.1 -0.0500005 0.00109988
1.1125 -0.0500005 0.00109988
1.125 -0.0500005 0.00109988
1.1375 -0.0500005 0.00109988
1.15 -0.0500005 0.00109988
1.1625 -0.0500005 0.00109988
1.175 -0.0500005 0.00109988
1.1875 -0.0500005 0.00109988
1.2 -0.0500005 0.00109988
1.2125 -0.0500005 0.00109988
1.225 -0.0500005 0.00109988
1.2375 -0.0500005 0.00109989
1.25 -0.0500005 0.00109989
1.2625 -0.0500005 0.00109989
1.275 -0.0500005 0.00109989
1.2875 -0.0500005 0.00109989
1.3 -0.0500005 0.00109989
1.3125 -0.0500005 0.00109989
1.325 -0.0500005 0.00109989
1.3375 -0.0500005 0.00109989
1.35 -0.0500005 0.00109989
1.3625 -0.0500005 0.00109989
1.375 -0.0500005 0.00109989
1.3875 -0.0500005 0.00109989
1.4 -0.0500005 0.00109989
1.4125 -0.0500005 0.00109989
1.425 -0.0500005 0.00109989
1.4375 -0.0500005 0.0010999
1.45 -0.0500005 0.0010999
1.4625 -0.0500005 0.0010999
1.475 -0.0500005 0.0010999
1.4875 -0.0500005 0.0010999
1.5 -0.0500006 0.0010999
1.5125 -0.0500006 0.0010999
1.525 -0.0500006 0.0010999
1.5375 -0.0500006 0.0010999
1.55 -0.0500006 0.0010999
1.5625 -0.0500006 0.0010999
1.575 -0.0500006 0.0010999
1.5875 -0.0500006 0.0010999
1.6 -0.0500006 0.0010999
1.6125 -0.0500006 0.00109991
1.625 -0.0500006 0.00109991
1.6375 -0.0500006 0.00109991
1.65 -0.0500006 0.00109991
1.6625 -0.0500006 0.00109991
1.675 -0.0500006 0.00109991
1.6875 -0.0500006 0.00109991
1.7 -0.0500006 0.00109991
1.7125 -0.0500006 0.00109991
1.725 -0.0500006 0.00109991
1.7375 -0.0500006 0.00109991
1.75 -0.0500006 0.00109991
1.7625 -0.0500006 0.00109992
1.775 -0.0500006 0.00109992
1.7875 -0.0500006 0.00109992
1.8 -0.0500006 0.00109992
1.8125 -0.0500006 0.00109992
1.825 -0.0500006 0.00109992
1.8375 -0.0500006 0.00109992
1.85 -0.0500006 0.00109992
1.8625 -0.0500006 0.00109992
1.875 -0.0500006 0.00109992
1.8875 -0.0500006 0.00109992
1.9 -0.0500006 0.00109992
1.9125 -0.0500006 0.00109993
1.925 -0.0500006 0.00109993
1.9375 -0.0500006 0.00109993
1.95 -0.0500006 0.00109993
1.9625 -0.0500006 0.00109993
1.975 -0.0500006 0.00109993
1.9875 -0.0500006 0.00109993
2 -0.0500006 0.00109993
2.0125 -0.0500006 0.00109993
2.025 -0.0500006 0.00109993
2.0375 -0.0500006 0.00109993
2.05 -0.0500006 0.00109993
2.0625 -0.0500006 0.00109993
2.075 -0.0500006 0.00109994
2.0875 -0.0500006 0.00109994
2.1 -0.0500006 0.00109994
2.1125 -0.0500006 0.00109994
2.125 -0.0500006 0.00109994
2.1375 -0.0500006 0.00109994
2.15 -0.0500006 0.00109994
2.1625 -0.0500006 0.00109994
2.175 -0.0500007 0.00109994
2.1875 -0.0500007 0.00109994
2.2 -0.0500007 0.00109994
2.2125 -0.0500007 0.00109994
2.225 -0.0500007 0.00109995
2.2375 -0.0500007 0.00109995
2.25 -0.0500007 0.00109995
2.2625 -0.0500007 0.00109995
2.275 -0.0500007 0.00109995
2.2875 -0.0500007 0.00109995
2.3 -0.0500007 0.00109995
2.3125 -0.0500007 0.00109995
2.325 -0.0500007 0.00109995
2.3375 -0.0500007 0.00109995
2.35 -0.0500007 0.00109995
2.3625 -0.0500007 0.00109995
2.375 -0.0500007 0.00109995
2.3875 -0.0500007 0.00109996
2.4 -0.0500007 0.00109996
2.4125 -0.0500007 0.00109996
2.425 -0.0500007 0.00109996
2.4375 -0.0500007 0.00109996
2.45 -0.0500007 0.00109996
2.4625 -0.0500007 0.00109996
2.475 -0.0500007 0.00109996
2.4875 -0.0500007 0.00109996
2.5 -0.0500007 0.00109996
2.5125 -0.0500007 0.00109996
2.525 -0.0500007 0.00109996
2.5375 -0.0500007 0.00109996
2.55 -0.0500007 0.00109996
2.5625 -0.0500007 0.00109997
2.575 -0.0500007 0.00109997
2.5875 -0.0500007 0.00109997
2.6 -0.0500007 0.00109997
2.6125 -0.0500007 0.00109997
2.625 -0.0500007 0.00109997
2.6375 -0.0500007 0.00109997
2.65 -0.0500007 0.00109997
2.6625 -0.0500007 0.00109997
2.675 -0.0500007 0.00109997
2.6875 -0.0500007 0.00109997
2.7 -0.0500007 0.00109997
2.7125 -0.0500007 0.00109997
2.725 -0.0500007 0.00109997
2.7375 -0.0500007 0.00109997
2.75 -0.0500007 0.00109997
2.7625 -0.0500007 0.00109998
2.775 -0.0500007 0.00109998
2.7875 -0.0500007 0.00109998
2.8 -0.0500007 0.00109998
2.8125 -0.0500007 0.00109998
2.825 -0.0500007 0.00109998
2.8375 -0.0500007 0.00109998
2.85 -0.0500007 0.00109998
2.8625 -0.0500008 0.00109998
2.875 -0.0500008 0.00109998
2.8875 -0.0500008 0.00109998
2.9 -0.0500008 0.00109998
2.9125 -0.0500008 0.00109998
2.925 -0.0500008 0.00109998
2.9375 -0.0500008 0.00109998
2.95 -0.0500008 0.00109998
2.9625 -0.0500008 0.00109998
2.975 -0.0500008 0.00109998
2.9875 -0.0500008 0.00109998
3 -0.0500008 0.00109998
3.0125 -0.0500008 0.00109999
3.025 -0.0500008 0.00109999
3.0375 -0.0500008 0.00109999
3.05 -0.0500008 0.00109999
3.0625 -0.0500008 0.00109999
3.075 -0.0500008 0.00109999
3.0875 -0.0500008 0.00109999
3.1 -0.0500008 0.00109999
3.1125 -0.0500008 0.00109999
3.125 -0.0500008 0.00109999
3.1375 -0.0500008 0.00109999
3.15 -0.0500008 0.00109999
3.1625 -0.0500008 0.00109999
3.175 -0.0500008 0.00109999
3.1875 -0.0500008 0.00109999
3.2 -0.0500008 0.00109999
3.2125 -0.0500008 0.00109999
3.225 -0.0500008 0.00109999
3.2375 -0.0500008 0.00109999
3.25 -0.0500008 0.00109999
3.2625 -0.0500008 0.00109999
3.275 -0.0500008 0.00109999
3.2875 -0.0500008 0.00109999
3.3 -0.0500008 0.00109999
3.3125 -0.0500008 0.00109999
3.325 -0.0500008 0.00109999
3.3375 -0.0500008 0.00109999
3.35 -0.0500008 0.0011
3.3625 -0.0500008 0.0011
[...]
POINT_DATA 15780
 FIELD attributes 2
p 1 15780 float
-0.0310977 -0.0311137 -0.0311298 -0.0311458 -0.0311619 -0.0311779 -0.0321094 -0.0330331 -0.0339569 -0.0348806 -0.035901 -0.0369649 -0.0380312 -0.0390976 -0.0401639 -0.0411836 -0.0421671 -0.0431319 -0.0440967 -0.0450614 -0.0459746 -0.0468724 -0.047775 -0.0486775 -0.04958 -0.0504768 -0.0513774 -0.0522789 -0.0531804 -0.0540819 -0.0549827 -0.0558902 -0.0567982 -0.0577061 -0.0586141 -0.0595215 -0.0604211 -0.0613186 -0.0622161 -0.0631136 -0.0640082 -0.0648872 -0.0657644 -0.0666415 -0.0675187 -0.0683937 -0.0692511 -0.0701064 -0.0709617 -0.071817 -0.0726704 -0.0735051 -0.0743371 -0.0751691 -0.0760012 -0.0768309 -0.0776391 -0.0784443 -0.0792495 -0.0800546 -0.080857 -0.0816351 -0.0824093 -0.0831836 -0.0839579 -0.0847286 -0.0854727 -0.0862126 -0.0869526 -0.0876925 -0.0884286 -0.0891359 -0.0898385 -0.090541 -0.0912436 -0.0919416 -0.0926088 -0.093271 -0.0939332 -0.0945953 -0.0952525 -0.0958769 -0.0964958 -0.0971146 -0.0977335 -0.0983467 -0.0989257 -0.0994989 -0.100072 -0.100645 -0.101213 -0.101745 -0.102271 -0.102798 -0.103324 -0.103844 -0.104328 -0.104806 -0.105284 -0.105761 -0.106233 -0.106667 -0.107094 -0.10752 -0.107947 -0.108367 -0.108747 -0.10912 -0.109493 -0.109865 -0.110231 -0.110555 -0.110872 -0.111189 -0.111506 -0.111816 -0.112084 -0.112344 -0.112604 -0.112864 -0.113117 -0.113327 -0.11353 -0.113732 -0.113935 -0.11413 -0.114282 -0.114426 -0.11457 -0.114714 -0.11485 -0.114943 -0.115028 -0.115114 -0.115199 -0.115277 -0.115313 -0.115342 -0.115371 -0.115399 -0.115421 -0.115403 -0.115377 -0.115352 -0.115326 -0.115294 -0.115223 -0.115145 -0.115068 -0.11499 -0.114905 -0.114782 -0.114653 -0.114523 -0.114394 -0.114257 -0.114083 -0.113902 -0.113721 -0.113539 -0.113351 -0.113127 -0.112897 -0.112666 -0.112436 -0.112198 -0.111928 -0.111651 -0.111374 -0.111097 -0.110814 -0.1105 -0.110179 -0.109858 -0.109537 -0.10921 -0.108854 -0.108491 -0.108129 -0.107766 -0.107397 -0.107001 -0.106599 -0.106197 -0.105795 -0.105387 -0.104954 -0.104516 -0.104077 -0.103639 -0.103195 -0.102729 -0.102258 -0.101788 -0.101318 -0.100843 -0.100348 -0.0998504 -0.0993523 -0.0988542 -0.098352 -0.0978332 -0.0973108 -0.0967883 -0.0962659 -0.0957396 -0.0951986 -0.0946543 -0.0941099 -0.0935655 -0.0930175 -0.0924565 -0.0918927 -0.091329 -0.0907652 -0.0901982 -0.0896206 -0.0890404 -0.0884602 -0.08788 -0.0872969 -0.0867054 -0.086112 -0.0855187 -0.0849253 -0.0843296 -0.0837278 -0.0831242 -0.0825207 -0.0819172 -0.0813116 -0.0807019 -0.0800911 -0.0794803 -0.0788695 -0.0782572 -0.0776428 -0.0770274 -0.076412 -0.0757966 -0.0751799 -0.0745629 -0.0739455 -0.0733281 -0.0727107 -0.0720925 -0.0714758 -0.0708588 -0.0702418 -0.0696248 -0.0690073 -0.0683927 -0.0677784 -0.067164 -0.0665497 -0.0659353 -0.0653252 -0.0647155 -0.0641059 -0.0634962 -0.0628865 -0.0622826 -0.0616794 -0.0610762 -0.0604729 -0.0598703 -0.0592744 -0.0586793 -0.0580843 -0.0574893 -0.0568949 -0.0563084 -0.0557232 -0.0551379 -0.0545527 -0.0539684 -0.053393 -0.0528189 -0.0522447 -0.0516706 -0.0510976 -0.0505342 -0.0499724 -0.0494107 -0.0488489 -0.0482886 -0.0477385 -0.0471902 -0.0466418 -0.0460935 -0.0455466 -0.0450107 -0.0444766 -0.0439426 -0.0434086 -0.0428763 -0.0423554 -0.0418365 -0.0413175 -0.0407986 -0.0402814 -0.0397761 -0.0392729 -0.0387697 -0.0382665 -0.0377653 -0.0372762 -0.0367892 -0.0363023 -0.0358153 -0.0353304 -0.0348577 -0.0343874 -0.033917 -0.0334467 -0.0329785 -0.0325228 -0.0320693 -0.0316158 -0.0311624 -0.0307111 -0.0302723 -0.0298359 -0.0293994 -0.028963 -0.0285289 -0.0281072 -0.0276879 -0.0272686 -0.0268493 -0.0264323 -0.0260276 -0.0256254 -0.0252232 -0.0248209 -0.0244211 -0.0240336 -0.0236485 -0.0232634 -0.0228783 -0.0224955 -0.0221251 -0.0217573 -0.0213894 -0.0210215 -0.0206561 -0.0203028 -0.0199521 -0.0196014 -0.0192506 -0.0189022 -0.0185656 -0.0182315 -0.0178975 -0.0175635 -0.017232 -0.0169116 -0.0165937 -0.0162758 -0.0159579 -0.0156425 -0.0153379 -0.0150356 -0.0147333 -0.014431 -0.0141312 -0.0138418 -0.0135548 -0.0132677 -0.0129806 -0.0126961 -0.0124218 -0.0121498 -0.0118777 -0.0116056 -0.0113358 -0.0110761 -0.0108186 -0.0105612 -0.0103037 -0.0100485 -0.00980323 -0.00956008 -0.00931692 -0.00907377 -0.00883282 -0.00860134 -0.00837191 -0.00814248 -0.00791305 -0.0076857 -0.00746735 -0.0072511 -0.00703486 -0.00681861 -0.00660444 -0.00639892 -0.00619542 -0.00599192 -0.00578843 -0.00558693 -0.00539371 -0.0052026 -0.00501148 -0.00482037 -0.00463136 -0.00445032 -0.00427138 -0.00409245 -0.00391352 -0.00373663 -0.0035674 -0.00340022 -0.00323304 -0.00306586 -0.00290072 -0.00274267 -0.0025865 -0.00243033 -0.00227415 -0.00212001 -0.0019725 -0.00182652 -0.00168054 -0.00153456 -0.00139036 -0.0012524 -0.00111604 -0.000979686 -0.000843329 -0.000708746 -0.000580073 -0.000453009 -0.000325945 -0.000198881 -7.34631e-05 4.62035e-05 0.000164255 0.000282306 0.000400357 0.00051679 0.000627775 0.000737174 0.000846574 0.000955974 0.00106375 0.00116648 0.00126767 0.00136886 0.00147005 0.00156965 0.00166454 0.00175797 0.00185141 0.00194484 0.00203676 0.00212429 0.00221039 0.0022965 0.0023826 0.00246723 0.00254773 0.0026269 0.00270608 0.00278525 0.00286302 0.00293696 0.00300958 0.0030822 0.00315483 0.00322606 0.00329375 0.0033602 0.00342665 0.0034931 0.00355825 0.00362011 0.00368074 0.00374138 0.00380201 0.00386136 0.00391768 0.00397286 0.00402804 0.00408322 0.00413719 0.00418838 0.00423844 0.00428849 0.00433854 0.0043874 0.0044337 0.00447893 0.00452417 0.0045694 0.0046135 0.00465526 0.00469597 0.00473667 0.00477737 0.00481696 0.00485441 0.00489088 0.00492734 0.00496381 0.00499922 0.00503272 0.00506523 0.00509773 0.00513024 0.0051617 0.00519144 0.00522025 0.00524906 0.00527787 0.00530571 0.00533198 0.00535735 0.00538271 0.00540808 0.00543248 0.00545548 0.00547764 0.00549979 0.00552195 0.0055432 0.00556324 0.00558242 0.0056016 0.00562079 0.00563907 0.00565629 0.00567273 0.00568916 0.00570559 0.00572119 0.00573586 0.00574975 0.00576364 0.00577753 0.00579059 0.00580285 0.00581439 0.00582593 0.00583747 0.00584824 0.00585834 0.00586772 0.0058771 0.00588647 0.00589507 0.00590314 0.00591054 0.00591793 0.00592532 0.005932 0.00593824 0.00594381 0.00594939 0.00595496 0.00595982 0.00596436 0.00596828 0.00597219 0.00597611 0.00597935 0.0059824 0.00598481 0.00598722 0.00598963 0.00599136 0.00599299 0.00599404 0.00599508 0.00599612 0.00599653 0.00599693 0.00599673 0.00599653 0.00599633 0.0059955 0.00599474 0.00599343 0.00599212 0.00599082 0.00598892 0.00598719 0.00598489 0.0059826 0.00598031 0.00597743 0.00597478 0.00597161 0.00596844 0.00596527 0.00596155 0.00595812 0.00595418 0.00595023 0.00594629 0.0059418 0.00593767 0.00593306 0.00592845 0.00592384 0.00591871 0.00591402 0.00590885 0.00590367 0.0058985 0.0058928 0.00588762 0.00588197 0.00587632 0.00587067 0.00586454 0.00585897 0.00585294 0.00584691 0.00584088 0.00583436 0.00582847 0.00582214 0.00581581 0.00580948 0.00580269 0.00579658 0.00579003 0.00578348 0.00577693 0.00576993 0.00576366 0.00575697 0.00575028 0.00574359 0.00573646 0.00573012 0.00572336 0.00571661 0.00570985 0.00570266 0.00569632 0.00568956 0.00568281 0.00567605 0.00566888 0.0056626 0.00565592 0.00564924 0.00564256 0.00563546 0.00562931 0.00562277 0.00561622 0.00560968 0.00560273 0.00559677 0.00559043 0.00558408 0.00557773 0.005571 0.0055653 0.00555921 0.00555312 0.00554703 0.00554056 0.00553516 0.00552938 0.00552361 0.00551783 0.00551168 0.00550665 0.00550124 0.00549582 0.00549041 0.00548462 0.00547998 0.00547497 0.00546995 0.00546494 0.00545956 0.00545536 0.00545077 0.00544618 0.00544159 0.00543662 0.00543284 0.00542867 0.0054245 0.00542033 0.00541579 0.00541239 0.00540858 0.00540476 0.00540095 0.00539674 0.00539354 0.00538989 0.00538625 0.0053826 0.00537854 0.00537512 0.0053712 0.00536728 0.00536336 0.00535896 0.00535405 0.00534832 0.00534259 0.00533686 0.00533035 0.00532156 0.00531235 0.00530314 0.00529393 0.00528423 0.0052581 0.00522644 0.00519478 0.00516313 0.00512659 0.0051151 0.00511775 0.00512039 0.00512304 0.00514866 0.00523225 0.00530828 0.00538764 0.00545059 0.0054962 0.00548917 0.00548533 0.00548149 0.00547768 0.00547614 0.00550301 0.00553068 0.00555836 0.00557802 0.00559898 0.0056129 0.00563175 0.00565062 0.00566949 0.00568382 0.0057467 0.00581171 0.00587672 0.00594173 0.00599824 0.00608966 0.00616577 0.00624187 0.00631798 0.00632312 0.00630849 0.00628911 0.00626973 0.00625035 0.00624047 0.00603962 0.00581806 0.0055965 0.00537494 0.00504757 0.00456759 0.00407371 0.00357983 0.00308595 0.00262186 0.0023521 0.0020748 0.0017975 0.0015202 0.00127287 0.00117427 0.00106925 0.000964231 0.00085921 0.000773568 0.000667658 0.000556191 0.000444723 0.000333255 0.000255272
-0.0319471 -0.0319662 -0.0319853 -0.0320044 -0.0320235 -0.0320426 -0.0327435 -0.0336211 -0.0344037 -0.0351662 -0.0362245 -0.0372612 -0.0382515 -0.039254 -0.0403134 -0.0412974 -0.0422585 -0.0432246 -0.0441652 -0.0451004 -0.0460063 -0.0469044 -0.0478105 -0.0487164 -0.0496215 -0.0505265 -0.0514183 -0.052322 -0.0532307 -0.0541404 -0.0550608 -0.0559659 -0.0568781 -0.0577899 -0.0586994 -0.0596144 -0.0605158 -0.0614141 -0.0623137 -0.0632136 -0.0641097 -0.0649908 -0.0658708 -0.0667504 -0.067628 -0.0685038 -0.069362 -0.0702177 -0.0710759 -0.0719347 -0.0727912 -0.0736252 -0.0744606 -0.0752955 -0.0761278 -0.0769614 -0.0777687 -0.0785741 -0.0793818 -0.0801901 -0.0809968 -0.0817725 -0.0825496 -0.0833263 -0.0841007 -0.0848767 -0.0856174 -0.0863575 -0.0870997 -0.0878425 -0.0885849 -0.0892872 -0.0899924 -0.0906972 -0.0913998 -0.0921052 -0.0927665 -0.0934286 -0.0940928 -0.0947574 -0.0954233 -0.0960401 -0.0966612 -0.0972819 -0.0979006 -0.0985234 -0.0990924 -0.0996654 -0.10024 -0.100815 -0.101395 -0.101914 -0.102441 -0.102969 -0.103495 -0.104029 -0.104501 -0.104979 -0.105457 -0.105936 -0.106421 -0.106843 -0.10727 -0.107697 -0.108124 -0.108555 -0.108925 -0.109298 -0.10967 -0.110043 -0.110418 -0.110733 -0.111049 -0.111365 -0.111682 -0.112001 -0.11226 -0.11252 -0.11278 -0.113039 -0.113299 -0.113501 -0.113703 -0.113905 -0.114108 -0.11431 -0.114454 -0.114598 -0.114742 -0.114886 -0.115029 -0.115111 -0.115197 -0.115282 -0.115367 -0.115455 -0.115479 -0.115508 -0.115536 -0.115565 -0.115599 -0.115566 -0.11554 -0.115514 -0.115489 -0.115469 -0.115385 -0.115307 -0.115227 -0.115147 -0.115074 -0.114938 -0.114805 -0.114673 -0.114543 -0.114415 -0.114229 -0.114047 -0.113863 -0.113678 -0.113498 -0.113262 -0.113028 -0.112795 -0.112564 -0.112335 -0.112053 -0.111776 -0.111496 -0.111215 -0.110939 -0.110614 -0.110289 -0.109966 -0.109645 -0.109324 -0.108959 -0.108596 -0.108231 -0.107865 -0.107502 -0.107099 -0.106695 -0.106291 -0.105889 -0.105486 -0.105045 -0.104607 -0.104167 -0.103726 -0.103288 -0.102812 -0.102339 -0.101866 -0.101395 -0.100927 -0.100421 -0.0999226 -0.0994215 -0.0989198 -0.0984248 -0.0978957 -0.0973694 -0.0968438 -0.0963208 -0.0958006 -0.095251 -0.0947062 -0.0941589 -0.0936109 -0.0930679 -0.0924994 -0.0919323 -0.0913657 -0.0908016 -0.0902385 -0.0896539 -0.0890734 -0.0884905 -0.0879072 -0.0873277 -0.08673 -0.0861335 -0.0855376 -0.0849439 -0.0843512 -0.0837435 -0.0831396 -0.0825337 -0.0819273 -0.0813245 -0.0807097 -0.0800961 -0.079483 -0.0788719 -0.0782618 -0.0776426 -0.0770269 -0.0764094 -0.0757914 -0.0751767 -0.0745557 -0.0739359 -0.0733164 -0.0726987 -0.072082 -0.0714616 -0.0708444 -0.0702256 -0.0696064 -0.0689902 -0.0683727 -0.0677564 -0.0671404 -0.0665258 -0.0659123 -0.0652996 -0.0646898 -0.0640786 -0.0634671 -0.0628582 -0.0622521 -0.0616473 -0.0610427 -0.0604393 -0.0598368 -0.0592392 -0.0586441 -0.0580478 -0.0574513 -0.0568571 -0.0562694 -0.0556828 -0.0550964 -0.054511 -0.0539266 -0.0533502 -0.052776 -0.0522009 -0.0516256 -0.0510524 -0.0504885 -0.0499257 -0.0493631 -0.0488012 -0.0482403 -0.04769 -0.0471416 -0.0465926 -0.0460433 -0.0454959 -0.04496 -0.0444253 -0.0438907 -0.0433566 -0.0428234 -0.0423029 -0.0417839 -0.0412645 -0.040745 -0.0402269 -0.0397223 -0.0392186 -0.038715 -0.0382118 -0.0377095 -0.0372212 -0.0367342 -0.036247 -0.0357597 -0.0352736 -0.0348021 -0.0343315 -0.0338609 -0.0333906 -0.0329211 -0.0324666 -0.0320132 -0.0315596 -0.031106 -0.0306535 -0.0302161 -0.0297796 -0.0293432 -0.0289069 -0.0284714 -0.0280512 -0.0276319 -0.0272127 -0.0267935 -0.0263751 -0.0259721 -0.02557 -0.0251679 -0.0247657 -0.0243645 -0.0239785 -0.0235934 -0.0232084 -0.0228235 -0.0224395 -0.0220705 -0.0217029 -0.0213352 -0.0209674 -0.0206008 -0.0202488 -0.0198981 -0.0195476 -0.0191971 -0.0188478 -0.0185124 -0.0181785 -0.0178445 -0.0175106 -0.0171779 -0.0168593 -0.0165416 -0.0162238 -0.0159061 -0.0155894 -0.0152869 -0.014985 -0.0146829 -0.0143808 -0.014079 -0.0137925 -0.0135056 -0.0132189 -0.0129322 -0.0126453 -0.012374 -0.0121024 -0.0118306 -0.0115586 -0.0112863 -0.0110293 -0.0107719 -0.0105149 -0.0102579 -0.0100004 -0.00975763 -0.00951493 -0.00927216 -0.00902905 -0.00878614 -0.00855716 -0.00832781 -0.00809887 -0.00787001 -0.00764067 -0.00742499 -0.00720947 -0.00699384 -0.00677772 -0.00656185 -0.00635876 -0.00615537 -0.00595251 -0.00574976 -0.00554672 -0.00535574 -0.00516537 -0.00497489 -0.00478386 -0.00459338 -0.00441423 -0.00423535 -0.00405687 -0.00387849 -0.00370047 -0.00353246 -0.00336552 -0.00319854 -0.00303139 -0.00286506 -0.00270844 -0.00255234 -0.00239633 -0.00224035 -0.00208502 -0.00193932 -0.00179375 -0.00164812 -0.00150225 -0.00135669 -0.00122127 -0.00108505 -0.000949202 -0.000813444 -0.000676925 -0.000550961 -0.000424561 -0.000298061 -0.000171109 -4.38706e-05 7.34001e-05 0.000191366 0.000308892 0.00042632 0.000544485 0.000653302 0.000762154 0.000871093 0.000980424 0.00108977 0.00119048 0.00129161 0.00139238 0.00149307 0.00159414 0.00168714 0.0017801 0.00187314 0.0019665 0.00205981 0.00214546 0.0022315 0.00231721 0.00240286 0.00248882 0.00256757 0.00264628 0.00272506 0.00280416 0.0028832 0.00295537 0.00302792 0.00310016 0.00317231 0.00324479 0.00331086 0.00337686 0.00344294 0.00350933 0.00357565 0.00363589 0.00369647 0.00375677 0.00381701 0.00387751 0.00393231 0.00398714 0.00404202 0.00409715 0.00415228 0.00420189 0.00425189 0.00430165 0.00435136 0.00440138 0.00444616 0.00449104 0.00453597 0.00458114 0.00462639 0.0046666 0.00470725 0.00474766 0.00478802 0.00482873 0.00486473 0.00490086 0.00493704 0.00497346 0.00500999 0.00504199 0.00507445 0.00510669 0.00513887 0.00517145 0.00519977 0.00522828 0.00525683 0.0052856 0.00531452 0.00533937 0.00536469 0.00538981 0.00541488 0.00544036 0.00546203 0.00548391 0.00550583 0.00552795 0.00555027 0.00556893 0.00558807 0.00560703 0.00562595 0.00564529 0.00566122 0.00567739 0.00569361 0.00571001 0.00572663 0.00573998 0.00575384 0.00576752 0.00578116 0.00579524 0.00580627 0.00581757 0.00582891 0.00584042 0.00585219 0.00586102 0.00587036 0.00587955 0.00588871 0.00589832 0.00590518 0.00591236 0.00591957 0.00592693 0.00593459 0.00593961 0.00594515 0.00595055 0.00595593 0.00596177 0.00596515 0.00596888 0.00597263 0.00597652 0.00598075 0.00598259 0.00598497 0.00598723 0.00598946 0.00599218 0.00599267 0.00599354 0.00599444 0.00599545 0.00599684 0.00599605 0.00599583 0.00599549 0.00599513 0.00599528 0.00599339 0.00599193 0.00599049 0.00598916 0.00598825 0.00598538 0.00598306 0.00598065 0.00597821 0.00597628 0.00597255 0.00596924 0.00596595 0.00596275 0.00595997 0.00595545 0.00595149 0.00594743 0.00594335 0.00593979 0.00593462 0.00592988 0.00592517 0.00592054 0.00591634 0.00591059 0.00590539 0.00590012 0.00589483 0.00589006 0.00588385 0.0058781 0.00587236 0.0058667 0.00586149 0.00585487 0.00584883 0.00584271 0.00583658 0.00583098 0.00582408 0.00581766 0.00581125 0.0058049 0.00579903 0.0057919 0.00578533 0.00577871 0.00577208 0.00576599 0.00575872 0.00575195 0.00574519 0.00573849 0.00573229 0.00572493 0.00571817 0.00571135 0.00570452 0.00569824 0.00569091 0.00568409 0.00567728 0.00567052 0.00566427 0.00565699 0.0056503 0.00564357 0.00563682 0.00563065 0.00562352 0.00561692 0.00561033 0.00560378 0.00559776 0.00559082 0.00558446 0.00557808 0.00557168 0.00556587 0.0055592 0.00555307 0.00554695 0.00554086 0.00553533 0.00552895 0.00552316 0.00551736 0.00551156 0.00550635 0.00550035 0.00549492 0.0054895 0.00548408 0.00547926 0.00547364 0.00546862 0.00546361 0.00545861 0.0054542 0.00544903 0.00544448 0.00543992 0.00543534 0.0054314 0.00542663 0.00542247 0.00541838 0.00541431 0.00541085 0.00540648 0.00540288 0.00539925 0.00539546 0.00539247 0.0053883 0.00538471 0.00538147 0.00537832 0.00537576 0.00537143 0.00536861 0.00536561 0.00536182 0.00535954 0.00535421 0.00534895 0.00534596 0.00534349 0.00534105 0.005332 0.00533026 0.00532734 0.00531939 0.00531835 0.00530402 0.00527945 0.00527493 0.00527515 0.0052644 0.0052215 0.00523307 0.00524343 0.0052487 0.0053168 0.00541025 0.0054738 0.00553736 0.00557533 0.00552902 0.00550979 0.00550274 0.00549569 0.00548819 0.00549218 0.00550972 0.00552787 0.00554603 0.00555773 0.00556898 0.00557003 0.00557109 0.00557214 0.00557306 0.00557376 0.00559859 0.00562753 0.00565656 0.00568559 0.00565897 0.00569712 0.00575976 0.00582277 0.00588578 0.00596577 0.00618004 0.00626906 0.00635151 0.00642762 0.0063207 0.00635655 0.00633717 0.00632072 0.00631126 0.00625589 0.00620934 0.00598779 0.00576623 0.00553209 0.0050385 0.00469888 0.004205 0.00371112 0.00321457 0.00259578 0.00241415 0.00213685 0.00185955 0.00158225 0.00124246 0.00122336 0.00111834 0.00101332 0.0009083 0.000751136 0.000715141 0.000603676 0.00049221 0.000380745 0.000206751