# vtk DataFile Version 2.0
track0
ASCII
DATASET POLYDATA
POINTS 15780 float
-1.001 -0.05 0.0011
-1.0008 -0.05 0.0011
-1.0006 -0.05 0.0011
-1.0004 -0.05 0.0011
-1.0002 -0.05 0.0011
-1 -0.05 0.0011
-0.9875 -0.05 0.0011
-0.975 -0.05 0.0011
-0.9625 -0.05 0.0011
-0.95 -0.05 0.0011
-0.9375 -0.05 0.00109999
-0.925 -0.05 0.00109999
-0.9125 -0.05 0.00109999
-0.9 -0.05 0.00109999
-0.8875 -0.05 0.00109999
-0.875 -0.05 0.00109999
-0.8625 -0.05 0.00109999
-0.85 -0.05 0.00109999
-0.8375 -0.05 0.00109998
-0.825 -0.0500001 0.00109998
-0.8125 -0.0500001 0.00109998
-0.8 -0.0500001 0.00109998
-0.7875 -0.0500001 0.00109998
-0.775 -0.0500001 0.00109998
-0.7625 -0.0500001 0.00109998
-0.75 -0.0500001 0.00109998
-0.7375 -0.0500001 0.00109997
-0.725 -0.0500001 0.00109997
-0.7125 -0.0500001 0.00109997
-0.7 -0.0500001 0.00109997
-0.6875 -0.0500001 0.00109997
-0.675 -0.0500001 0.00109997
-0.6625 -0.0500001 0.00109997
-0.65 -0.0500001 0.00109996
-0.6375 -0.0500001 0.00109996
-0.625 -0.0500001 0.00109996
-0.6125 -0.0500001 0.00109996
-0.6 -0.0500001 0.00109996
-0.5875 -0.0500001 0.00109996
-0.575 -0.0500001 0.00109996
-0.5625 -0.0500001 0.00109996
-0.55 -0.0500001 0.00109995
-0.5375 -0.0500001 0.00109995
-0.525 -0.0500001 0.00109995
-0.5125 -0.0500001 0.00109995
-0.5 -0.0500001 0.00109995
-0.4875 -0.0500001 0.00109995
-0.475 -0.0500001 0.00109995
-0.4625 -0.0500001 0.00109994
-0.45 -0.0500002 0.00109994
-0.4375 -0.0500002 0.00109994
-0.425 -0.0500002 0.00109994
-0.4125 -0.0500002 0.00109994
-0.4 -0.0500002 0.00109994
-0.3875 -0.0500002 0.00109994
-0.375 -0.0500002 0.00109994
-0.3625 -0.0500002 0.00109993
-0.35 -0.0500002 0.00109993
-0.3375 -0.0500002 0.00109993
-0.325 -0.0500002 0.00109993
-0.3125 -0.0500002 0.00109993
-0.3 -0.0500002 0.00109993
-0.2875 -0.0500002 0.00109993
-0.275 -0.0500002 0.00109993
-0.2625 -0.0500002 0.00109992
-0.25 -0.0500002 0.00109992
-0.2375 -0.0500002 0.00109992
-0.225 -0.0500002 0.00109992
-0.2125 -0.0500002 0.00109992
-0.2 -0.0500002 0.00109992
-0.1875 -0.0500002 0.00109992
-0.175 -0.0500002 0.00109992
-0.1625 -0.0500002 0.00109991
-0.15 -0.0500002 0.00109991
-0.1375 -0.0500002 0.00109991
-0.125 -0.0500002 0.00109991
-0.1125 -0.0500002 0.00109991
-0.1 -0.0500002 0.00109991
-0.0875 -0.0500002 0.00109991
-0.075 -0.0500002 0.00109991
-0.0625 -0.0500002 0.00109991
-0.05 -0.0500003 0.00109991
-0.0375 -0.0500003 0.0010999
-0.025 -0.0500003 0.0010999
-0.0125 -0.0500003 0.0010999
2.10607e-13 -0.0500003 0.0010999
0.0125 -0.0500003 0.0010999
0.025 -0.0500003 0.0010999
0.0375 -0.0500003 0.0010999
0.05 -0.0500003 0.0010999
0.0625 -0.0500003 0.0010999
0.075 -0.0500003 0.0010999
0.0875 -0.0500003 0.0010999
0.1 -0.0500003 0.00109989
0.1125 -0.0500003 0.00109989
0.125 -0.0500003 0.00109989
0.1375 -0.0500003 0.00109989
0.15 -0.0500003 0.00109989
0.1625 -0.0500003 0.00109989
0.175 -0.0500003 0.00109989
0.1875 -0.0500003 0.00109989
0.2 -0.0500003 0.00109989
0.2125 -0.0500003 0.00109989
0.225 -0.0500003 0.00109989
0.2375 -0.0500003 0.00109989
0.25 -0.0500003 0.00109989
0.2625 -0.0500003 0.00109988
0.275 -0.0500003 0.00109988
0.2875 -0.0500003 0.00109988
0.3 -0.0500003 0.00109988
0.3125 -0.0500003 0.00109988
0.325 -0.0500003 0.00109988
0.3375 -0.0500003 0.00109988
0.35 -0.0500003 0.00109988
0.3625 -0.0500003 0.00109988
0.375 -0.0500003 0.00109988
0.3875 -0.0500003 0.00109988
0.4 -0.0500004 0.00109988
0.4125 -0.0500004 0.00109988
0.425 -0.0500004 0.00109988
0.4375 -0.0500004 0.00109988
0.45 -0.0500004 0.00109988
0.4625 -0.0500004 0.00109988
0.475 -0.0500004 0.00109988
0.4875 -0.0500004 0.00109988
0.5 -0.0500004 0.00109988
0.5125 -0.0500004 0.00109988
0.525 -0.0500004 0.00109988
0.5375 -0.0500004 0.00109988
0.55 -0.0500004 0.00109988
0.5625 -0.0500004 0.00109988
0.575 -0.0500004 0.00109987
0.5875 -0.0500004 0.00109987
0.6 -0.0500004 0.00109987
0.6125 -0.0500004 0.00109987
0.625 -0.0500004 0.00109987
0.6375 -0.0500004 0.00109987
0.65 -0.0500004 0.00109987
0.6625 -0.0500004 0.00109987
0.675 -0.0500004 0.00109987
0.6875 -0.0500004 0.00109987
0.7 -0.0500004 0.00109987
0.7125 -0.0500004 0.00109987
0.725 -0.0500004 0.00109987
0.7375 -0.0500004 0.00109987
0.75 -0.0500004 0.00109987
0.7625 -0.0500004 0.00109987
0.775 -0.0500004 0.00109987
0.7875 -0.0500004 0.00109987
0.8 -0.0500004 0.00109987
0.8125 -0.0500004 0.00109987
0.825 -0.0500004 0.00109987
0.8375 -0.0500004 0.00109987
0.85 -0.0500004 0.00109987
0.8625 -0.0500004 0.00109987
0.875 -0.0500004 0.00109987
0.8875 -0.0500004 0.00109987
0.9 -0.0500004 0.00109987
0.9125 -0.0500005 0.00109988
0.925 -0.0500005 0.00109988
0.9375 -0.0500005 0.00109988
0.95 -0.0500005 0.00109988
0.9625 -0.0500005 0.00109988
0.975 -0.0500005 0.00109988
0.9875 -0.0500005 0.00109988
1 -0.0500005 0.00109988
1.0125 -0.0500005 0.00109988
1.025 -0.0500005 0.00109988
1.0375 -0.0500005 0.00109988
1.05 -0.0500005 0.00109988
1.0625 -0.0500005 0.00109988
1.075 -0.0500005 0.00109988
1.0875 -0.0500005 0.00109988
1.1 -0.0500005 0.00109988
1.1125 -0.0500005 0.00109988
1.125 -0.0500005 0.00109988
1.1375 -0.0500005 0.00109988
1.15 -0.0500005 0.00109988
1.1625 -0.0500005 0.00109988
1.175 -0.0500005 0.00109988
1.1875 -0.0500005 0.00109988
1.2 -0.0500005 0.00109988
1.2125 -0.0500005 0.00109988
1.225 -0.0500005 0.00109988
1.2375 -0.0500005 0.00109989
1.25 -0.0500005 0.00109989
1.2625 -0.0500005 0.00109989
1.275 -0.0500005 0.00109989
1.2875 -0.0500005 0.00109989
1.3 -0.0500005 0.00109989
1.3125 -0.0500005 0.00109989
1.325 -0.0500005 0.00109989
1.3375 -0.0500005 0.00109989
1.35 -0.0500005 0.00109989
1.3625 -0.0500005 0.00109989
1.375 -0.0500005 0.00109989
1.3875 -0.0500005 0.00109989
1.4 -0.0500005 0.00109989
1.4125 -0.0500005 0.00109989
1.425 -0.0500005 0.00109989
1.4375 -0.0500005 0.0010999
1.45 -0.0500005 0.0010999
1.4625 -0.0500005 0.0010999
1.475 -0.0500005 0.0010999
1.4875 -0.0500005 0.0010999
1.5 -0.0500006 0.0010999
1.5125 -0.0500006 0.0010999
1.525 -0.0500006 0.0010999
1.5375 -0.0500006 0.0010999
1.55 -0.0500006 0.0010999
1.5625 -0.0500006 0.0010999
1.575 -0.0500006 0.0010999
1.5875 -0.0500006 0.0010999
1.6 -0.0500006 0.0010999
1.6125 -0.0500006 0.00109991
1.625 -0.0500006 0.00109991
1.6375 -0.0500006 0.00109991
1.65 -0.0500006 0.00109991
1.6625 -0.0500006 0.00109991
1.675 -0.0500006 0.00109991
1.6875 -0.0500006 0.00109991
1.7 -0.0500006 0.00109991
1.7125 -0.0500006 0.00109991
1.725 -0.0500006 0.00109991
1.7375 -0.0500006 0.00109991
1.75 -0.0500006 0.00109991
1.7625 -0.0500006 0.00109992
1.775 -0.0500006 0.00109992
1.7875 -0.0500006 0.00109992
1.8 -0.0500006 0.00109992
1.8125 -0.0500006 0.00109992
1.825 -0.0500006 0.00109992
1.8375 -0.0500006 0.00109992
1.85 -0.0500006 0.00109992
1.8625 -0.0500006 0.00109992
1.875 -0.0500006 0.00109992
1.8875 -0.0500006 0.00109992
1.9 -0.0500006 0.00109992
1.9125 -0.0500006 0.00109993
1.925 -0.0500006 0.00109993
1.9375 -0.0500006 0.00109993
1.95 -0.0500006 0.00109993
1.9625 -0.0500006 0.00109993
1.975 -0.0500006 0.00109993
1.9875 -0.0500006 0.00109993
2 -0.0500006 0.00109993
2.0125 -0.0500006 0.00109993
2.025 -0.0500006 0.00109993
2.0375 -0.0500006 0.00109993
2.05 -0.0500006 0.00109993
2.0625 -0.0500006 0.00109993
2.075 -0.0500006 0.00109994
2.0875 -0.0500006 0.00109994
2.1 -0.0500006 0.00109994
2.1125 -0.0500006 0.00109994
2.125 -0.0500006 0.00109994
2.1375 -0.0500006 0.00109994
2.15 -0.0500006 0.00109994
2.1625 -0.0500006 0.00109994
2.175 -0.0500007 0.00109994
2.1875 -0.0500007 0.00109994
2.2 -0.0500007 0.00109994
2.2125 -0.0500007 0.00109994
2.225 -0.0500007 0.00109995
2.2375 -0.0500007 0.00109995
2.25 -0.0500007 0.00109995
2.2625 -0.0500007 0.00109995
2.275 -0.0500007 0.00109995
2.2875 -0.0500007 0.00109995
2.3 -0.0500007 0.00109995
2.3125 -0.0500007 0.00109995
2.325 -0.0500007 0.00109995
2.3375 -0.0500007 0.00109995
2.35 -0.0500007 0.00109995
2.3625 -0.0500007 0.00109995
2.375 -0.0500007 0.00109995
2.3875 -0.0500007 0.00109996
2.4 -0.0500007 0.00109996
2.4125 -0.0500007 0.00109996
2.425 -0.0500007 0.00109996
2.4375 -0.0500007 0.00109996
2.45 -0.0500007 0.00109996
2.4625 -0.0500007 0.00109996
2.475 -0.0500007 0.00109996
2.4875 -0.0500007 0.00109996
2.5 -0.0500007 0.00109996
2.5125 -0.0500007 0.00109996
2.525 -0.0500007 0.00109996
2.5375 -0.0500007 0.00109996
2.55 -0.0500007 0.00109996
2.5625 -0.0500007 0.00109997
2.575 -0.0500007 0.00109997
2.5875 -0.0500007 0.00109997
2.6 -0.0500007 0.00109997
2.6125 -0.0500007 0.00109997
2.625 -0.0500007 0.00109997
2.6375 -0.0500007 0.00109997
2.65 -0.0500007 0.00109997
2.6625 -0.0500007 0.00109997
2.675 -0.0500007 0.00109997
2.6875 -0.0500007 0.00109997
2.7 -0.0500007 0.00109997
2.7125 -0.0500007 0.00109997
2.725 -0.0500007 0.00109997
2.7375 -0.0500007 0.00109997
2.75 -0.0500007 0.00109997
2.7625 -0.0500007 0.00109998
2.775 -0.0500007 0.00109998
2.7875 -0.0500007 0.00109998
2.8 -0.0500007 0.00109998
2.8125 -0.0500007 0.00109998
2.825 -0.0500007 0.00109998
2.8375 -0.0500007 0.00109998
2.85 -0.0500007 0.00109998
2.8625 -0.0500008 0.00109998
2.875 -0.0500008 0.00109998
2.8875 -0.0500008 0.00109998
2.9 -0.0500008 0.00109998
2.9125 -0.0500008 0.00109998
2.925 -0.0500008 0.00109998
2.9375 -0.0500008 0.00109998
2.95 -0.0500008 0.00109998
2.9625 -0.0500008 0.00109998
2.975 -0.0500008 0.00109998
2.9875 -0.0500008 0.00109998
3 -0.0500008 0.00109998
3.0125 -0.0500008 0.00109999
3.025 -0.0500008 0.00109999
3.0375 -0.0500008 0.00109999
3.05 -0.0500008 0.00109999
3.0625 -0.0500008 0.00109999
3.075 -0.0500008 0.00109999
3.0875 -0.0500008 0.00109999
3.1 -0.0500008 0.00109999
3.1125 -0.0500008 0.00109999
3.125 -0.0500008 0.00109999
3.1375 -0.0500008 0.00109999
3.15 -0.0500008 0.00109999
3.1625 -0.0500008 0.00109999
3.175 -0.0500008 0.00109999
3.1875 -0.0500008 0.00109999
3.2 -0.0500008 0.00109999
3.2125 -0.0500008 0.00109999
3.225 -0.0500008 0.00109999
3.2375 -0.0500008 0.00109999
3.25 -0.0500008 0.00109999
3.2625 -0.0500008 0.00109999
3.275 -0.0500008 0.00109999
3.2875 -0.0500008 0.00109999
3.3 -0.0500008 0.00109999
3.3125 -0.0500008 0.00109999
3.325 -0.0500008 0.00109999
3.3375 -0.0500008 0.00109999
3.35 -0.0500008 0.0011
3.3625 -0.0500008 0.0011
[...]
POINT_DATA 15780
 FIELD attributes 1
U 3 15780 float
30.0002 	-7.01768e-06 	-6.30588e-06 30.0002 	-6.8432e-06 	-6.51455e-06 30.0002 	-6.66872e-06 	-6.72322e-06 30.0002 	-6.49423e-06 	-6.93188e-06 30.0002 	-6.31975e-06 	-7.14055e-06 30.0002 	-6.14527e-06 	-7.34922e-06 30.0004 	-1.23848e-05 	-1.261e-06 30.0004 	-1.23848e-05 	-1.261e-06 30.0004 	-1.23848e-05 	-1.26099e-06 30.0004 	-1.23848e-05 	-1.26099e-06 30.0002 	-7.0355e-08 	-6.84368e-06 30.0005 	-1.07087e-05 	-1.68705e-06 30.0005 	-1.07087e-05 	-1.68704e-06 30.0005 	-1.07087e-05 	-1.68704e-06 30.0005 	-1.07087e-05 	-1.68704e-06 30.0002 	-7.20348e-08 	-6.59609e-06 30.0005 	-9.95816e-06 	-2.08022e-06 30.0005 	-9.95815e-06 	-2.08022e-06 30.0005 	-9.95814e-06 	-2.08022e-06 30.0005 	-9.95813e-06 	-2.08022e-06 30.0003 	-4.59292e-06 	-6.24727e-06 30.0005 	-9.69139e-06 	-2.34895e-06 30.0005 	-9.69138e-06 	-2.34895e-06 30.0005 	-9.69138e-06 	-2.34894e-06 30.0005 	-9.69137e-06 	-2.34894e-06 30.0003 	-7.5638e-08 	-6.57617e-06 30.0005 	-9.52323e-06 	-2.49782e-06 30.0005 	-9.52322e-06 	-2.49781e-06 30.0005 	-9.52321e-06 	-2.49781e-06 30.0005 	-9.5232e-06 	-2.49781e-06 30.0003 	-7.74016e-08 	-6.52628e-06 30.0005 	-9.38686e-06 	-2.55606e-06 30.0005 	-9.38686e-06 	-2.55606e-06 30.0005 	-9.38685e-06 	-2.55606e-06 30.0005 	-9.38684e-06 	-2.55605e-06 30.0003 	-4.26676e-06 	-6.08529e-06 30.0005 	-9.27944e-06 	-2.55829e-06 30.0005 	-9.27943e-06 	-2.55829e-06 30.0005 	-9.27942e-06 	-2.55829e-06 30.0005 	-9.27941e-06 	-2.55828e-06 30.0003 	-4.19916e-06 	-5.9779e-06 30.0006 	-9.18727e-06 	-2.53043e-06 30.0006 	-9.18727e-06 	-2.53042e-06 30.0006 	-9.18726e-06 	-2.53042e-06 30.0006 	-9.18725e-06 	-2.53042e-06 30.0003 	-8.27181e-08 	-6.20128e-06 30.0006 	-9.09721e-06 	-2.48118e-06 30.0006 	-9.0972e-06 	-2.48118e-06 30.0006 	-9.09719e-06 	-2.48117e-06 30.0006 	-9.09718e-06 	-2.48117e-06 30.0003 	-8.44674e-08 	-6.05425e-06 30.0006 	-9.00474e-06 	-2.41361e-06 30.0006 	-9.00473e-06 	-2.4136e-06 30.0006 	-9.00473e-06 	-2.4136e-06 30.0006 	-9.00472e-06 	-2.4136e-06 30.0003 	-8.62144e-08 	-5.88783e-06 30.0006 	-8.90859e-06 	-2.32972e-06 30.0006 	-8.90858e-06 	-2.32972e-06 30.0006 	-8.90857e-06 	-2.32972e-06 30.0006 	-8.90856e-06 	-2.32972e-06 30.0003 	-3.93775e-06 	-5.36348e-06 30.0006 	-8.80853e-06 	-2.23274e-06 30.0006 	-8.80852e-06 	-2.23274e-06 30.0006 	-8.80851e-06 	-2.23274e-06 30.0006 	-8.80851e-06 	-2.23273e-06 30.0003 	-3.86396e-06 	-5.16476e-06 30.0006 	-8.70425e-06 	-2.12413e-06 30.0006 	-8.70424e-06 	-2.12413e-06 30.0006 	-8.70423e-06 	-2.12413e-06 30.0006 	-8.70423e-06 	-2.12413e-06 30.0003 	-9.14615e-08 	-5.28458e-06 30.0006 	-8.59604e-06 	-2.00508e-06 30.0006 	-8.59603e-06 	-2.00507e-06 30.0006 	-8.59603e-06 	-2.00507e-06 30.0006 	-8.59602e-06 	-2.00507e-06 30.0003 	-3.70433e-06 	-4.7194e-06 30.0007 	-8.48465e-06 	-1.87668e-06 30.0007 	-8.48464e-06 	-1.87668e-06 30.0007 	-8.48463e-06 	-1.87668e-06 30.0007 	-8.48463e-06 	-1.87668e-06 30.0003 	-3.61922e-06 	-4.47431e-06 30.0007 	-8.37128e-06 	-1.73884e-06 30.0007 	-8.37128e-06 	-1.73883e-06 30.0007 	-8.37127e-06 	-1.73883e-06 30.0007 	-8.37126e-06 	-1.73883e-06 30.0004 	-9.66512e-08 	-4.5432e-06 30.0007 	-8.25968e-06 	-1.59803e-06 30.0007 	-8.25968e-06 	-1.59803e-06 30.0007 	-8.25967e-06 	-1.59803e-06 30.0007 	-8.25967e-06 	-1.59803e-06 30.0004 	-9.83699e-08 	-4.27125e-06 30.0007 	-8.14765e-06 	-1.46324e-06 30.0007 	-8.14764e-06 	-1.46323e-06 30.0007 	-8.14764e-06 	-1.46323e-06 30.0007 	-8.14763e-06 	-1.46323e-06 30.0004 	-1.00082e-07 	-3.98927e-06 30.0007 	-8.01954e-06 	-1.32072e-06 30.0007 	-8.01954e-06 	-1.32072e-06 30.0007 	-8.01953e-06 	-1.32072e-06 30.0007 	-8.01953e-06 	-1.32072e-06 30.0004 	-3.25079e-06 	-3.37796e-06 30.0007 	-7.88071e-06 	-1.16801e-06 30.0007 	-7.88071e-06 	-1.16801e-06 30.0007 	-7.8807e-06 	-1.16801e-06 30.0007 	-7.8807e-06 	-1.16801e-06 30.0004 	-1.0347e-07 	-3.40289e-06 30.0007 	-7.74475e-06 	-1.00788e-06 30.0007 	-7.74475e-06 	-1.00788e-06 30.0007 	-7.74474e-06 	-1.00788e-06 30.0007 	-7.74474e-06 	-1.00788e-06 30.0004 	-1.0516e-07 	-3.10328e-06 30.0007 	-7.61058e-06 	-8.41866e-07 30.0007 	-7.61058e-06 	-8.41866e-07 30.0007 	-7.61058e-06 	-8.41866e-07 30.0007 	-7.61058e-06 	-8.41865e-07 30.0004 	-2.93156e-06 	-2.48789e-06 30.0007 	-7.47478e-06 	-6.70213e-07 30.0007 	-7.47478e-06 	-6.70213e-07 30.0007 	-7.47478e-06 	-6.70213e-07 30.0007 	-7.47477e-06 	-6.70212e-07 30.0004 	-2.82507e-06 	-2.18314e-06 30.0007 	-7.34261e-06 	-4.9706e-07 30.0007 	-7.34261e-06 	-4.9706e-07 30.0007 	-7.34261e-06 	-4.9706e-07 30.0007 	-7.34261e-06 	-4.9706e-07 30.0004 	-1.10191e-07 	-2.17112e-06 30.0007 	-7.21478e-06 	-3.17335e-07 30.0007 	-7.21478e-06 	-3.17335e-07 30.0007 	-7.21478e-06 	-3.17335e-07 30.0007 	-7.21478e-06 	-3.17335e-07 30.0004 	-1.11851e-07 	-1.85338e-06 30.0007 	-7.09801e-06 	-1.38233e-07 30.0007 	-7.09801e-06 	-1.38233e-07 30.0007 	-7.09801e-06 	-1.38233e-07 30.0007 	-7.09801e-06 	-1.38233e-07 30.0004 	-1.13493e-07 	-1.54904e-06 30.0007 	-6.98465e-06 	4.08318e-08 30.0007 	-6.98465e-06 	4.08318e-08 30.0007 	-6.98465e-06 	4.08318e-08 30.0007 	-6.98465e-06 	4.08318e-08 30.0004 	-2.43856e-06 	-9.58517e-07 30.0007 	-6.87103e-06 	2.14647e-07 30.0007 	-6.87103e-06 	2.14647e-07 30.0007 	-6.87103e-06 	2.14647e-07 30.0007 	-6.87103e-06 	2.14647e-07 30.0004 	-2.34694e-06 	-6.82316e-07 30.0007 	-6.75285e-06 	3.90696e-07 30.0007 	-6.75285e-06 	3.90696e-07 30.0007 	-6.75285e-06 	3.90696e-07 30.0007 	-6.75285e-06 	3.90696e-07 30.0004 	-1.18416e-07 	-7.09785e-07 30.0007 	-6.64232e-06 	5.64347e-07 30.0007 	-6.64232e-06 	5.64347e-07 30.0007 	-6.64233e-06 	5.64347e-07 30.0007 	-6.64233e-06 	5.64347e-07 30.0004 	-2.16658e-06 	-1.45459e-07 30.0007 	-6.53532e-06 	7.27372e-07 30.0007 	-6.53532e-06 	7.27372e-07 30.0007 	-6.53532e-06 	7.27373e-07 30.0007 	-6.53532e-06 	7.27373e-07 30.0004 	-2.0809e-06 	1.13818e-07 30.0007 	-6.42999e-06 	8.78811e-07 30.0007 	-6.42999e-06 	8.78811e-07 30.0007 	-6.43e-06 	8.78812e-07 30.0007 	-6.43e-06 	8.78812e-07 30.0004 	-1.23306e-07 	7.05597e-08 30.0007 	-6.32241e-06 	1.01776e-06 30.0007 	-6.32242e-06 	1.01776e-06 30.0007 	-6.32242e-06 	1.01776e-06 30.0007 	-6.32242e-06 	1.01776e-06 30.0004 	-1.24897e-07 	3.15788e-07 30.0007 	-6.21602e-06 	1.14059e-06 30.0007 	-6.21603e-06 	1.14059e-06 30.0007 	-6.21603e-06 	1.14059e-06 30.0007 	-6.21603e-06 	1.14059e-06 30.0004 	-1.26476e-07 	5.45505e-07 30.0007 	-6.11474e-06 	1.25629e-06 30.0007 	-6.11475e-06 	1.25629e-06 30.0007 	-6.11475e-06 	1.25629e-06 30.0007 	-6.11475e-06 	1.25629e-06 30.0004 	-1.76408e-06 	1.03206e-06 30.0007 	-6.022e-06 	1.37125e-06 30.0007 	-6.02201e-06 	1.37125e-06 30.0007 	-6.02201e-06 	1.37125e-06 30.0007 	-6.02201e-06 	1.37125e-06 30.0004 	-1.29572e-07 	9.36924e-07 30.0007 	-5.94234e-06 	1.48847e-06 30.0007 	-5.94234e-06 	1.48848e-06 30.0007 	-5.94235e-06 	1.48848e-06 30.0007 	-5.94235e-06 	1.48848e-06 30.0004 	-1.31076e-07 	1.10454e-06 30.0007 	-5.87111e-06 	1.59286e-06 30.0007 	-5.87112e-06 	1.59286e-06 30.0007 	-5.87112e-06 	1.59287e-06 30.0007 	-5.87113e-06 	1.59287e-06 30.0004 	-1.5912e-06 	1.53875e-06 30.0007 	-5.8015e-06 	1.67929e-06 30.0007 	-5.8015e-06 	1.67929e-06 30.0007 	-5.8015e-06 	1.67929e-06 30.0007 	-5.80151e-06 	1.67929e-06 30.0003 	-1.54399e-06 	1.6782e-06 30.0007 	-5.73344e-06 	1.75008e-06 30.0007 	-5.73344e-06 	1.75009e-06 30.0007 	-5.73345e-06 	1.75009e-06 30.0007 	-5.73345e-06 	1.75009e-06 30.0003 	-1.35785e-07 	1.52471e-06 30.0006 	-5.66831e-06 	1.80979e-06 30.0006 	-5.66831e-06 	1.80979e-06 30.0006 	-5.66831e-06 	1.80979e-06 30.0006 	-5.66832e-06 	1.80979e-06 30.0003 	-1.37341e-07 	1.63226e-06 30.0006 	-5.60822e-06 	1.85992e-06 30.0006 	-5.60822e-06 	1.85992e-06 30.0006 	-5.60823e-06 	1.85992e-06 30.0006 	-5.60823e-06 	1.85992e-06 30.0003 	-1.38809e-07 	1.72398e-06 30.0006 	-5.55392e-06 	1.90041e-06 30.0006 	-5.55393e-06 	1.90041e-06 30.0006 	-5.55393e-06 	1.90041e-06 30.0006 	-5.55393e-06 	1.90041e-06 30.0003 	-1.38868e-06 	2.07102e-06 30.0006 	-5.50508e-06 	1.93107e-06 30.0006 	-5.50509e-06 	1.93107e-06 30.0006 	-5.50509e-06 	1.93108e-06 30.0006 	-5.5051e-06 	1.93108e-06 30.0003 	-1.36166e-06 	2.13096e-06 30.0006 	-5.46139e-06 	1.95181e-06 30.0006 	-5.46139e-06 	1.95182e-06 30.0006 	-5.46139e-06 	1.95182e-06 30.0006 	-5.4614e-06 	1.95182e-06 30.0003 	-1.42875e-07 	1.90825e-06 30.0006 	-5.42263e-06 	1.96276e-06 30.0006 	-5.42263e-06 	1.96276e-06 30.0006 	-5.42264e-06 	1.96277e-06 30.0006 	-5.42264e-06 	1.96277e-06 30.0003 	-1.3233e-06 	2.20765e-06 30.0006 	-5.38866e-06 	1.96429e-06 30.0006 	-5.38867e-06 	1.9643e-06 30.0006 	-5.38867e-06 	1.9643e-06 30.0006 	-5.38868e-06 	1.9643e-06 30.0003 	-1.31153e-06 	2.22554e-06 30.0006 	-5.3595e-06 	1.9569e-06 30.0006 	-5.3595e-06 	1.9569e-06 30.0006 	-5.35951e-06 	1.9569e-06 30.0006 	-5.35951e-06 	1.9569e-06 30.0003 	-1.46787e-07 	1.96616e-06 30.0005 	-5.33508e-06 	1.9411e-06 30.0005 	-5.33508e-06 	1.94111e-06 30.0005 	-5.33508e-06 	1.94111e-06 30.0005 	-5.33509e-06 	1.94111e-06 30.0003 	-1.4806e-07 	1.96056e-06 30.0005 	-5.31508e-06 	1.91792e-06 30.0005 	-5.31508e-06 	1.91792e-06 30.0005 	-5.31509e-06 	1.91792e-06 30.0005 	-5.31509e-06 	1.91792e-06 30.0003 	-1.49278e-07 	1.94423e-06 30.0005 	-5.29949e-06 	1.88799e-06 30.0005 	-5.2995e-06 	1.88799e-06 30.0005 	-5.2995e-06 	1.88799e-06 30.0005 	-5.2995e-06 	1.88799e-06 30.0003 	-1.30901e-06 	2.179e-06 30.0005 	-5.28816e-06 	1.85189e-06 30.0005 	-5.28816e-06 	1.85189e-06 30.0005 	-5.28817e-06 	1.85189e-06 30.0005 	-5.28817e-06 	1.8519e-06 30.0003 	-1.51639e-07 	1.88229e-06 30.0005 	-5.2809e-06 	1.81007e-06 30.0005 	-5.2809e-06 	1.81007e-06 30.0005 	-5.28091e-06 	1.81007e-06 30.0005 	-5.28091e-06 	1.81008e-06 30.0003 	-1.5277e-07 	1.83817e-06 30.0005 	-5.27746e-06 	1.76315e-06 30.0005 	-5.27746e-06 	1.76315e-06 30.0005 	-5.27746e-06 	1.76315e-06 30.0005 	-5.27747e-06 	1.76316e-06 30.0003 	-1.34824e-06 	2.04408e-06 30.0005 	-5.27763e-06 	1.71162e-06 30.0005 	-5.27764e-06 	1.71162e-06 30.0005 	-5.27764e-06 	1.71162e-06 30.0005 	-5.27765e-06 	1.71162e-06 30.0003 	-1.36832e-06 	1.98425e-06 30.0005 	-5.28124e-06 	1.65599e-06 30.0005 	-5.28124e-06 	1.65599e-06 30.0005 	-5.28125e-06 	1.65599e-06 30.0005 	-5.28125e-06 	1.65599e-06 30.0002 	-1.56002e-07 	1.66281e-06 30.0005 	-5.28805e-06 	1.59668e-06 30.0005 	-5.28805e-06 	1.59668e-06 30.0005 	-5.28805e-06 	1.59668e-06 30.0005 	-5.28806e-06 	1.59668e-06 30.0002 	-1.5706e-07 	1.59256e-06 30.0004 	-5.298e-06 	1.53415e-06 30.0004 	-5.298e-06 	1.53416e-06 30.0004 	-5.298e-06 	1.53416e-06 30.0004 	-5.29801e-06 	1.53416e-06 30.0002 	-1.58136e-07 	1.5177e-06 30.0004 	-5.31095e-06 	1.46889e-06 30.0004 	-5.31095e-06 	1.46889e-06 30.0004 	-5.31095e-06 	1.46889e-06 30.0004 	-5.31096e-06 	1.46889e-06 30.0002 	-1.48e-06 	1.69063e-06 30.0004 	-5.3265e-06 	1.40144e-06 30.0004 	-5.3265e-06 	1.40144e-06 30.0004 	-5.3265e-06 	1.40144e-06 30.0004 	-5.32651e-06 	1.40144e-06 30.0002 	-1.51453e-06 	1.60714e-06 30.0004 	-5.34445e-06 	1.3322e-06 30.0004 	-5.34445e-06 	1.3322e-06 30.0004 	-5.34445e-06 	1.3322e-06 30.0004 	-5.34446e-06 	1.3322e-06 30.0002 	-1.61425e-07 	1.27188e-06 30.0004 	-5.3645e-06 	1.26149e-06 30.0004 	-5.3645e-06 	1.26149e-06 30.0004 	-5.3645e-06 	1.26149e-06 30.0004 	-5.36451e-06 	1.26149e-06 30.0002 	-1.58988e-06 	1.43251e-06 30.0004 	-5.38632e-06 	1.18982e-06 30.0004 	-5.38632e-06 	1.18982e-06 30.0004 	-5.38633e-06 	1.18982e-06 30.0004 	-5.38633e-06 	1.18982e-06 30.0002 	-1.63037e-06 	1.34243e-06 30.0004 	-5.40996e-06 	1.11749e-06 30.0004 	-5.40997e-06 	1.11749e-06 30.0004 	-5.40997e-06 	1.11749e-06 30.0004 	-5.40997e-06 	1.11749e-06 30.0002 	-1.64472e-07 	1.0061e-06 30.0004 	-5.43514e-06 	1.04482e-06 30.0004 	-5.43514e-06 	1.04482e-06 30.0004 	-5.43514e-06 	1.04482e-06 30.0004 	-5.43514e-06 	1.04482e-06 30.0002 	-1.65431e-07 	9.15629e-07 30.0004 	-5.4608e-06 	9.72283e-07 30.0004 	-5.4608e-06 	9.72283e-07 30.0004 	-5.46081e-06 	9.72284e-07 30.0004 	-5.46081e-06 	9.72284e-07 30.0002 	-1.66338e-07 	8.25008e-07 30.0004 	-5.48687e-06 	8.99503e-07 30.0004 	-5.48687e-06 	8.99503e-07 30.0004 	-5.48687e-06 	8.99504e-07 30.0004 	-5.48687e-06 	8.99504e-07 30.0002 	-1.80731e-06 	9.75439e-07 30.0004 	-5.51368e-06 	8.25973e-07 30.0004 	-5.51368e-06 	8.25973e-07 30.0004 	-5.51368e-06 	8.25973e-07 30.0004 	-5.51368e-06 	8.25973e-07 30.0002 	-1.68059e-07 	6.43645e-07 30.0003 	-5.54344e-06 	7.52014e-07 30.0003 	-5.54344e-06 	7.52014e-07 30.0003 	-5.54344e-06 	7.52015e-07 30.0003 	-5.54345e-06 	7.52015e-07 30.0002 	-1.68889e-07 	5.52651e-07 30.0003 	-5.57792e-06 	6.7747e-07 30.0003 	-5.57792e-06 	6.7747e-07 30.0003 	-5.57793e-06 	6.7747e-07 30.0003 	-5.57793e-06 	6.7747e-07 30.0002 	-1.95569e-06 	7.01333e-07 30.0003 	-5.61479e-06 	6.04403e-07 30.0003 	-5.61479e-06 	6.04403e-07 30.0003 	-5.61479e-06 	6.04403e-07 30.0003 	-5.61479e-06 	6.04404e-07 30.0002 	-2.00789e-06 	6.11704e-07 30.0003 	-5.6509e-06 	5.34689e-07 30.0003 	-5.6509e-06 	5.34689e-07 30.0003 	-5.6509e-06 	5.34689e-07 30.0003 	-5.6509e-06 	5.34689e-07 30.0002 	-1.71387e-07 	2.80959e-07 30.0003 	-5.68202e-06 	4.67663e-07 30.0003 	-5.68202e-06 	4.67663e-07 30.0003 	-5.68202e-06 	4.67663e-07 30.0003 	-5.68202e-06 	4.67663e-07 30.0002 	-1.72216e-07 	1.97345e-07 30.0003 	-5.71044e-06 	4.03217e-07 30.0003 	-5.71044e-06 	4.03217e-07 30.0003 	-5.71044e-06 	4.03217e-07 30.0003 	-5.71044e-06 	4.03217e-07 30.0002 	-1.73013e-07 	1.16414e-07 30.0003 	-5.73861e-06 	3.39251e-07 30.0003 	-5.73861e-06 	3.39251e-07 30.0003 	-5.73861e-06 	3.39251e-07 30.0003 	-5.73861e-06 	3.39251e-07 30.0002 	-2.20116e-06 	2.74105e-07 30.0003 	-5.76659e-06 	2.75287e-07 30.0003 	-5.76659e-06 	2.75287e-07 30.0003 	-5.76659e-06 	2.75287e-07 30.0003 	-5.76659e-06 	2.75287e-07 30.0002 	-2.24809e-06 	1.96363e-07 30.0003 	-5.79336e-06 	2.10803e-07 30.0003 	-5.79336e-06 	2.10803e-07 30.0003 	-5.79336e-06 	2.10803e-07 30.0003 	-5.79336e-06 	2.10803e-07 30.0002 	-1.75201e-07 	-1.09132e-07 30.0003 	-5.82139e-06 	1.48792e-07 30.0003 	-5.82139e-06 	1.48792e-07 30.0003 	-5.82139e-06 	1.48792e-07 30.0003 	-5.82139e-06 	1.48792e-07 30.0002 	-2.34188e-06 	4.46761e-08 30.0003 	-5.85065e-06 	8.99938e-08 30.0003 	-5.85065e-06 	8.99938e-08 30.0003 	-5.85065e-06 	8.99938e-08 30.0003 	-5.85065e-06 	8.99938e-08 30.0002 	-2.38919e-06 	-2.90969e-08 30.0003 	-5.88108e-06 	3.48248e-08 30.0003 	-5.88108e-06 	3.48248e-08 30.0003 	-5.88108e-06 	3.48248e-08 30.0003 	-5.88108e-06 	3.48248e-08 30.0002 	-1.77219e-07 	-3.30759e-07 30.0003 	-5.91285e-06 	-1.70622e-08 30.0003 	-5.91285e-06 	-1.70622e-08 30.0003 	-5.91285e-06 	-1.70622e-08 30.0003 	-5.91285e-06 	-1.70622e-08 30.0002 	-1.77855e-07 	-4.01795e-07 30.0003 	-5.94597e-06 	-6.90427e-08 30.0003 	-5.94597e-06 	-6.90427e-08 30.0003 	-5.94597e-06 	-6.90427e-08 30.0003 	-5.94597e-06 	-6.90427e-08 30.0002 	-1.78466e-07 	-4.67067e-07 30.0003 	-5.97794e-06 	-1.23307e-07 30.0003 	-5.97794e-06 	-1.23307e-07 30.0003 	-5.97794e-06 	-1.23307e-07 30.0003 	-5.97794e-06 	-1.23307e-07 30.0002 	-2.58074e-06 	-3.01372e-07 30.0003 	-6.00574e-06 	-1.77949e-07 30.0003 	-6.00573e-06 	-1.77949e-07 30.0003 	-6.00573e-06 	-1.77949e-07 30.0003 	-6.00573e-06 	-1.77949e-07 30.0002 	-1.79665e-07 	-5.84878e-07 30.0003 	-6.02988e-06 	-2.29207e-07 30.0003 	-6.02988e-06 	-2.29207e-07 30.0003 	-6.02988e-06 	-2.29207e-07 30.0003 	-6.02988e-06 	-2.29207e-07 30.0002 	-1.80267e-07 	-6.42141e-07 30.0003 	-6.05312e-06 	-2.76172e-07 30.0003 	-6.05312e-06 	-2.76172e-07 30.0003 	-6.05312e-06 	-2.76172e-07 30.0003 	-6.05312e-06 	-2.76172e-07 30.0002 	-2.70882e-06 	-4.78973e-07 30.0003 	-6.07699e-06 	-3.19654e-07 30.0003 	-6.07698e-06 	-3.19654e-07 30.0003 	-6.07698e-06 	-3.19654e-07 30.0003 	-6.07698e-06 	-3.19654e-07 30.0002 	-2.74986e-06 	-5.34015e-07 30.0003 	-6.10125e-06 	-3.61185e-07 30.0003 	-6.10125e-06 	-3.61185e-07 30.0003 	-6.10125e-06 	-3.61185e-07 30.0003 	-6.10125e-06 	-3.61185e-07 30.0002 	-1.82024e-07 	-8.03778e-07 30.0003 	-6.1253e-06 	-4.01383e-07 30.0003 	-6.1253e-06 	-4.01383e-07 30.0003 	-6.1253e-06 	-4.01383e-07 30.0003 	-6.1253e-06 	-4.01383e-07 30.0001 	-1.82578e-07 	-8.53097e-07 30.0003 	-6.1487e-06 	-4.40377e-07 30.0003 	-6.1487e-06 	-4.40377e-07 30.0003 	-6.1487e-06 	-4.40377e-07 30.0003 	-6.1487e-06 	-4.40377e-07 30.0001 	-1.83118e-07 	-9.00306e-07 30.0003 	-6.17136e-06 	-4.77999e-07 30.0003 	-6.17136e-06 	-4.77999e-07 30.0003 	-6.17136e-06 	-4.77998e-07 30.0003 	-6.17136e-06 	-4.77998e-07 30.0001 	-2.90938e-06 	-7.31443e-07 30.0003 	-6.19317e-06 	-5.14211e-07 30.0003 	-6.19317e-06 	-5.14211e-07 30.0003 	-6.19317e-06 	-5.14211e-07 30.0003 	-6.19317e-06 	-5.14211e-07 30.0001 	-2.94727e-06 	-7.75568e-07 30.0003 	-6.21413e-06 	-5.48833e-07 30.0003 	-6.21413e-06 	-5.48833e-07 30.0003 	-6.21413e-06 	-5.48832e-07 30.0003 	-6.21413e-06 	-5.48832e-07 30.0001 	-1.8468e-07 	-1.02952e-06 30.0003 	-6.23426e-06 	-5.82048e-07 30.0003 	-6.23426e-06 	-5.82048e-07 30.0003 	-6.23426e-06 	-5.82048e-07 30.0003 	-6.23426e-06 	-5.82047e-07 30.0001 	-3.02029e-06 	-8.57455e-07 30.0003 	-6.25355e-06 	-6.13889e-07 30.0003 	-6.25355e-06 	-6.13889e-07 30.0003 	-6.25355e-06 	-6.13889e-07 30.0003 	-6.25354e-06 	-6.13889e-07 30.0001 	-3.0554e-06 	-8.9546e-07 30.0003 	-6.27206e-06 	-6.44413e-07 30.0003 	-6.27206e-06 	-6.44413e-07 30.0003 	-6.27206e-06 	-6.44412e-07 30.0003 	-6.27206e-06 	-6.44412e-07 30.0001 	-1.86149e-07 	-1.14083e-06 30.0003 	-6.28985e-06 	-6.73609e-07 30.0003 	-6.28985e-06 	-6.73609e-07 30.0003 	-6.28985e-06 	-6.73609e-07 30.0003 	-6.28985e-06 	-6.73609e-07 30.0001 	-1.86621e-07 	-1.17458e-06 30.0003 	-6.30688e-06 	-7.01425e-07 30.0003 	-6.30688e-06 	-7.01424e-07 30.0003 	-6.30688e-06 	-7.01424e-07 30.0003 	-6.30688e-06 	-7.01424e-07 30.0001 	-1.8708e-07 	-1.20667e-06 30.0003 	-6.32299e-06 	-7.27856e-07 30.0003 	-6.32298e-06 	-7.27856e-07 30.0003 	-6.32298e-06 	-7.27856e-07 30.0003 	-6.32298e-06 	-7.27856e-07 30.0001 	-3.18689e-06 	-1.03098e-06 30.0003 	-6.33827e-06 	-7.52964e-07 30.0003 	-6.33826e-06 	-7.52964e-07 30.0003 	-6.33826e-06 	-7.52964e-07 30.0003 	-6.33826e-06 	-7.52964e-07 30.0001 	-1.87964e-07 	-1.26594e-06 30.0003 	-6.35281e-06 	-7.76931e-07 30.0003 	-6.35281e-06 	-7.76931e-07 30.0003 	-6.35281e-06 	-7.76931e-07 30.0003 	-6.3528e-06 	-7.76931e-07 30.0001 	-1.8839e-07 	-1.2933e-06 30.0003 	-6.36662e-06 	-7.99801e-07 30.0003 	-6.36662e-06 	-7.99801e-07 30.0003 	-6.36662e-06 	-7.99801e-07 30.0003 	-6.36662e-06 	-7.998e-07 30.0001 	-3.27632e-06 	-1.11602e-06 30.0003 	-6.37972e-06 	-8.2153e-07 30.0003 	-6.37972e-06 	-8.2153e-07 30.0003 	-6.37971e-06 	-8.21529e-07 30.0003 	-6.37971e-06 	-8.21529e-07 30.0001 	-3.30444e-06 	-1.1415e-06 30.0003 	-6.39205e-06 	-8.41961e-07 30.0003 	-6.39205e-06 	-8.41961e-07 30.0003 	-6.39205e-06 	-8.41961e-07 30.0003 	-6.39205e-06 	-8.41961e-07 30.0001 	-1.8961e-07 	-1.36684e-06 30.0003 	-6.4037e-06 	-8.61353e-07 30.0003 	-6.40369e-06 	-8.61352e-07 30.0003 	-6.40369e-06 	-8.61352e-07 30.0003 	-6.40369e-06 	-8.61352e-07 30.0001 	-1.90001e-07 	-1.38871e-06 30.0003 	-6.41464e-06 	-8.79788e-07 30.0003 	-6.41464e-06 	-8.79788e-07 30.0003 	-6.41464e-06 	-8.79788e-07 30.0003 	-6.41464e-06 	-8.79787e-07 30.0001 	-1.90384e-07 	-1.40936e-06 30.0003 	-6.4249e-06 	-8.97274e-07 30.0003 	-6.4249e-06 	-8.97273e-07 30.0003 	-6.42489e-06 	-8.97273e-07 30.0003 	-6.42489e-06 	-8.97273e-07 30.0001 	-3.40878e-06 	-1.23049e-06 30.0003 	-6.43448e-06 	-9.13857e-07 30.0003 	-6.43448e-06 	-9.13857e-07 30.0003 	-6.43448e-06 	-9.13857e-07 30.0003 	-6.43448e-06 	-9.13856e-07 30.0001 	-3.43292e-06 	-1.24982e-06 30.0003 	-6.44342e-06 	-9.2954e-07 30.0003 	-6.44342e-06 	-9.2954e-07 30.0003 	-6.44342e-06 	-9.29539e-07 30.0003 	-6.44342e-06 	-9.29539e-07 30.0001 	-1.91503e-07 	-1.46453e-06 30.0003 	-6.45173e-06 	-9.44392e-07 30.0003 	-6.45172e-06 	-9.44392e-07 30.0003 	-6.45172e-06 	-9.44391e-07 30.0003 	-6.45172e-06 	-9.44391e-07 30.0001 	-3.47901e-06 	-1.28531e-06 30.0003 	-6.45941e-06 	-9.58397e-07 30.0003 	-6.45941e-06 	-9.58397e-07 30.0003 	-6.45941e-06 	-9.58397e-07 30.0003 	-6.45941e-06 	-9.58396e-07 30.0001 	-3.50107e-06 	-1.30157e-06 30.0003 	-6.46652e-06 	-9.71687e-07 30.0003 	-6.46651e-06 	-9.71686e-07 30.0003 	-6.46651e-06 	-9.71686e-07 30.0003 	-6.46651e-06 	-