# vtk DataFile Version 2.0
track0
ASCII
DATASET POLYDATA
POINTS 15780 float
-1.001 -0.05 0.0011
-1.0008 -0.05 0.0011
-1.0006 -0.05 0.0011
-1.0004 -0.05 0.0011
-1.0002 -0.05 0.0011
-1 -0.05 0.0011
-0.9875 -0.05 0.0011
-0.975 -0.05 0.0011
-0.9625 -0.05 0.0011
-0.95 -0.05 0.0011
-0.9375 -0.05 0.00109999
-0.925 -0.05 0.00109999
-0.9125 -0.05 0.00109999
-0.9 -0.05 0.00109999
-0.8875 -0.05 0.00109999
-0.875 -0.05 0.00109999
-0.8625 -0.05 0.00109999
-0.85 -0.05 0.00109999
-0.8375 -0.05 0.00109998
-0.825 -0.0500001 0.00109998
-0.8125 -0.0500001 0.00109998
-0.8 -0.0500001 0.00109998
-0.7875 -0.0500001 0.00109998
-0.775 -0.0500001 0.00109998
-0.7625 -0.0500001 0.00109998
-0.75 -0.0500001 0.00109998
-0.7375 -0.0500001 0.00109997
-0.725 -0.0500001 0.00109997
-0.7125 -0.0500001 0.00109997
-0.7 -0.0500001 0.00109997
-0.6875 -0.0500001 0.00109997
-0.675 -0.0500001 0.00109997
-0.6625 -0.0500001 0.00109997
-0.65 -0.0500001 0.00109996
-0.6375 -0.0500001 0.00109996
-0.625 -0.0500001 0.00109996
-0.6125 -0.0500001 0.00109996
-0.6 -0.0500001 0.00109996
-0.5875 -0.0500001 0.00109996
-0.575 -0.0500001 0.00109996
-0.5625 -0.0500001 0.00109996
-0.55 -0.0500001 0.00109995
-0.5375 -0.0500001 0.00109995
-0.525 -0.0500001 0.00109995
-0.5125 -0.0500001 0.00109995
-0.5 -0.0500001 0.00109995
-0.4875 -0.0500001 0.00109995
-0.475 -0.0500001 0.00109995
-0.4625 -0.0500001 0.00109994
-0.45 -0.0500002 0.00109994
-0.4375 -0.0500002 0.00109994
-0.425 -0.0500002 0.00109994
-0.4125 -0.0500002 0.00109994
-0.4 -0.0500002 0.00109994
-0.3875 -0.0500002 0.00109994
-0.375 -0.0500002 0.00109994
-0.3625 -0.0500002 0.00109993
-0.35 -0.0500002 0.00109993
-0.3375 -0.0500002 0.00109993
-0.325 -0.0500002 0.00109993
-0.3125 -0.0500002 0.00109993
-0.3 -0.0500002 0.00109993
-0.2875 -0.0500002 0.00109993
-0.275 -0.0500002 0.00109993
-0.2625 -0.0500002 0.00109992
-0.25 -0.0500002 0.00109992
-0.2375 -0.0500002 0.00109992
-0.225 -0.0500002 0.00109992
-0.2125 -0.0500002 0.00109992
-0.2 -0.0500002 0.00109992
-0.1875 -0.0500002 0.00109992
-0.175 -0.0500002 0.00109992
-0.1625 -0.0500002 0.00109991
-0.15 -0.0500002 0.00109991
-0.1375 -0.0500002 0.00109991
-0.125 -0.0500002 0.00109991
-0.1125 -0.0500002 0.00109991
-0.1 -0.0500002 0.00109991
-0.0875 -0.0500002 0.00109991
-0.075 -0.0500002 0.00109991
-0.0625 -0.0500002 0.00109991
-0.05 -0.0500003 0.00109991
-0.0375 -0.0500003 0.0010999
-0.025 -0.0500003 0.0010999
-0.0125 -0.0500003 0.0010999
2.10607e-13 -0.0500003 0.0010999
0.0125 -0.0500003 0.0010999
0.025 -0.0500003 0.0010999
0.0375 -0.0500003 0.0010999
0.05 -0.0500003 0.0010999
0.0625 -0.0500003 0.0010999
0.075 -0.0500003 0.0010999
0.0875 -0.0500003 0.0010999
0.1 -0.0500003 0.00109989
0.1125 -0.0500003 0.00109989
0.125 -0.0500003 0.00109989
0.1375 -0.0500003 0.00109989
0.15 -0.0500003 0.00109989
0.1625 -0.0500003 0.00109989
0.175 -0.0500003 0.00109989
0.1875 -0.0500003 0.00109989
0.2 -0.0500003 0.00109989
0.2125 -0.0500003 0.00109989
0.225 -0.0500003 0.00109989
0.2375 -0.0500003 0.00109989
0.25 -0.0500003 0.00109989
0.2625 -0.0500003 0.00109988
0.275 -0.0500003 0.00109988
0.2875 -0.0500003 0.00109988
0.3 -0.0500003 0.00109988
0.3125 -0.0500003 0.00109988
0.325 -0.0500003 0.00109988
0.3375 -0.0500003 0.00109988
0.35 -0.0500003 0.00109988
0.3625 -0.0500003 0.00109988
0.375 -0.0500003 0.00109988
0.3875 -0.0500003 0.00109988
0.4 -0.0500004 0.00109988
0.4125 -0.0500004 0.00109988
0.425 -0.0500004 0.00109988
0.4375 -0.0500004 0.00109988
0.45 -0.0500004 0.00109988
0.4625 -0.0500004 0.00109988
0.475 -0.0500004 0.00109988
0.4875 -0.0500004 0.00109988
0.5 -0.0500004 0.00109988
0.5125 -0.0500004 0.00109988
0.525 -0.0500004 0.00109988
0.5375 -0.0500004 0.00109988
0.55 -0.0500004 0.00109988
0.5625 -0.0500004 0.00109988
0.575 -0.0500004 0.00109987
0.5875 -0.0500004 0.00109987
0.6 -0.0500004 0.00109987
0.6125 -0.0500004 0.00109987
0.625 -0.0500004 0.00109987
0.6375 -0.0500004 0.00109987
0.65 -0.0500004 0.00109987
0.6625 -0.0500004 0.00109987
0.675 -0.0500004 0.00109987
0.6875 -0.0500004 0.00109987
0.7 -0.0500004 0.00109987
0.7125 -0.0500004 0.00109987
0.725 -0.0500004 0.00109987
0.7375 -0.0500004 0.00109987
0.75 -0.0500004 0.00109987
0.7625 -0.0500004 0.00109987
0.775 -0.0500004 0.00109987
0.7875 -0.0500004 0.00109987
0.8 -0.0500004 0.00109987
0.8125 -0.0500004 0.00109987
0.825 -0.0500004 0.00109987
0.8375 -0.0500004 0.00109987
0.85 -0.0500004 0.00109987
0.8625 -0.0500004 0.00109987
0.875 -0.0500004 0.00109987
0.8875 -0.0500004 0.00109987
0.9 -0.0500004 0.00109987
0.9125 -0.0500005 0.00109988
0.925 -0.0500005 0.00109988
0.9375 -0.0500005 0.00109988
0.95 -0.0500005 0.00109988
0.9625 -0.0500005 0.00109988
0.975 -0.0500005 0.00109988
0.9875 -0.0500005 0.00109988
1 -0.0500005 0.00109988
1.0125 -0.0500005 0.00109988
1.025 -0.0500005 0.00109988
1.0375 -0.0500005 0.00109988
1.05 -0.0500005 0.00109988
1.0625 -0.0500005 0.00109988
1.075 -0.0500005 0.00109988
1.0875 -0.0500005 0.00109988
1.1 -0.0500005 0.00109988
1.1125 -0.0500005 0.00109988
1.125 -0.0500005 0.00109988
1.1375 -0.0500005 0.00109988
1.15 -0.0500005 0.00109988
1.1625 -0.0500005 0.00109988
1.175 -0.0500005 0.00109988
1.1875 -0.0500005 0.00109988
1.2 -0.0500005 0.00109988
1.2125 -0.0500005 0.00109988
1.225 -0.0500005 0.00109988
1.2375 -0.0500005 0.00109989
1.25 -0.0500005 0.00109989
1.2625 -0.0500005 0.00109989
1.275 -0.0500005 0.00109989
1.2875 -0.0500005 0.00109989
1.3 -0.0500005 0.00109989
1.3125 -0.0500005 0.00109989
1.325 -0.0500005 0.00109989
1.3375 -0.0500005 0.00109989
1.35 -0.0500005 0.00109989
1.3625 -0.0500005 0.00109989
1.375 -0.0500005 0.00109989
1.3875 -0.0500005 0.00109989
1.4 -0.0500005 0.00109989
1.4125 -0.0500005 0.00109989
1.425 -0.0500005 0.00109989
1.4375 -0.0500005 0.0010999
1.45 -0.0500005 0.0010999
1.4625 -0.0500005 0.0010999
1.475 -0.0500005 0.0010999
1.4875 -0.0500005 0.0010999
1.5 -0.0500006 0.0010999
1.5125 -0.0500006 0.0010999
1.525 -0.0500006 0.0010999
1.5375 -0.0500006 0.0010999
1.55 -0.0500006 0.0010999
1.5625 -0.0500006 0.0010999
1.575 -0.0500006 0.0010999
1.5875 -0.0500006 0.0010999
1.6 -0.0500006 0.0010999
1.6125 -0.0500006 0.00109991
1.625 -0.0500006 0.00109991
1.6375 -0.0500006 0.00109991
1.65 -0.0500006 0.00109991
1.6625 -0.0500006 0.00109991
1.675 -0.0500006 0.00109991
1.6875 -0.0500006 0.00109991
1.7 -0.0500006 0.00109991
1.7125 -0.0500006 0.00109991
1.725 -0.0500006 0.00109991
1.7375 -0.0500006 0.00109991
1.75 -0.0500006 0.00109991
1.7625 -0.0500006 0.00109992
1.775 -0.0500006 0.00109992
1.7875 -0.0500006 0.00109992
1.8 -0.0500006 0.00109992
1.8125 -0.0500006 0.00109992
1.825 -0.0500006 0.00109992
1.8375 -0.0500006 0.00109992
1.85 -0.0500006 0.00109992
1.8625 -0.0500006 0.00109992
1.875 -0.0500006 0.00109992
1.8875 -0.0500006 0.00109992
1.9 -0.0500006 0.00109992
1.9125 -0.0500006 0.00109993
1.925 -0.0500006 0.00109993
1.9375 -0.0500006 0.00109993
1.95 -0.0500006 0.00109993
1.9625 -0.0500006 0.00109993
1.975 -0.0500006 0.00109993
1.9875 -0.0500006 0.00109993
2 -0.0500006 0.00109993
2.0125 -0.0500006 0.00109993
2.025 -0.0500006 0.00109993
2.0375 -0.0500006 0.00109993
2.05 -0.0500006 0.00109993
2.0625 -0.0500006 0.00109994
2.075 -0.0500006 0.00109994
2.0875 -0.0500006 0.00109994
2.1 -0.0500006 0.00109994
2.1125 -0.0500006 0.00109994
2.125 -0.0500006 0.00109994
2.1375 -0.0500006 0.00109994
2.15 -0.0500006 0.00109994
2.1625 -0.0500006 0.00109994
2.175 -0.0500007 0.00109994
2.1875 -0.0500007 0.00109994
2.2 -0.0500007 0.00109994
2.2125 -0.0500007 0.00109994
2.225 -0.0500007 0.00109995
2.2375 -0.0500007 0.00109995
2.25 -0.0500007 0.00109995
2.2625 -0.0500007 0.00109995
2.275 -0.0500007 0.00109995
2.2875 -0.0500007 0.00109995
2.3 -0.0500007 0.00109995
2.3125 -0.0500007 0.00109995
2.325 -0.0500007 0.00109995
2.3375 -0.0500007 0.00109995
2.35 -0.0500007 0.00109995
2.3625 -0.0500007 0.00109995
2.375 -0.0500007 0.00109995
2.3875 -0.0500007 0.00109996
2.4 -0.0500007 0.00109996
2.4125 -0.0500007 0.00109996
2.425 -0.0500007 0.00109996
2.4375 -0.0500007 0.00109996
2.45 -0.0500007 0.00109996
2.4625 -0.0500007 0.00109996
2.475 -0.0500007 0.00109996
2.4875 -0.0500007 0.00109996
2.5 -0.0500007 0.00109996
2.5125 -0.0500007 0.00109996
2.525 -0.0500007 0.00109996
2.5375 -0.0500007 0.00109996
2.55 -0.0500007 0.00109996
2.5625 -0.0500007 0.00109997
2.575 -0.0500007 0.00109997
2.5875 -0.0500007 0.00109997
2.6 -0.0500007 0.00109997
2.6125 -0.0500007 0.00109997
2.625 -0.0500007 0.00109997
2.6375 -0.0500007 0.00109997
2.65 -0.0500007 0.00109997
2.6625 -0.0500007 0.00109997
2.675 -0.0500007 0.00109997
2.6875 -0.0500007 0.00109997
2.7 -0.0500007 0.00109997
2.7125 -0.0500007 0.00109997
2.725 -0.0500007 0.00109997
2.7375 -0.0500007 0.00109997
2.75 -0.0500007 0.00109997
2.7625 -0.0500007 0.00109998
2.775 -0.0500007 0.00109998
2.7875 -0.0500007 0.00109998
2.8 -0.0500007 0.00109998
2.8125 -0.0500007 0.00109998
2.825 -0.0500007 0.00109998
2.8375 -0.0500007 0.00109998
2.85 -0.0500007 0.00109998
2.8625 -0.0500008 0.00109998
2.875 -0.0500008 0.00109998
2.8875 -0.0500008 0.00109998
2.9 -0.0500008 0.00109998
2.9125 -0.0500008 0.00109998
2.925 -0.0500008 0.00109998
2.9375 -0.0500008 0.00109998
2.95 -0.0500008 0.00109998
2.9625 -0.0500008 0.00109998
2.975 -0.0500008 0.00109998
2.9875 -0.0500008 0.00109998
3 -0.0500008 0.00109998
3.0125 -0.0500008 0.00109999
3.025 -0.0500008 0.00109999
3.0375 -0.0500008 0.00109999
3.05 -0.0500008 0.00109999
3.0625 -0.0500008 0.00109999
3.075 -0.0500008 0.00109999
3.0875 -0.0500008 0.00109999
3.1 -0.0500008 0.00109999
3.1125 -0.0500008 0.00109999
3.125 -0.0500008 0.00109999
3.1375 -0.0500008 0.00109999
3.15 -0.0500008 0.00109999
3.1625 -0.0500008 0.00109999
3.175 -0.0500008 0.00109999
3.1875 -0.0500008 0.00109999
3.2 -0.0500008 0.00109999
3.2125 -0.0500008 0.00109999
3.225 -0.0500008 0.00109999
3.2375 -0.0500008 0.00109999
3.25 -0.0500008 0.00109999
3.2625 -0.0500008 0.00109999
3.275 -0.0500008 0.00109999
3.2875 -0.0500008 0.00109999
3.3 -0.0500008 0.00109999
3.3125 -0.0500008 0.00109999
3.325 -0.0500008 0.00109999
3.3375 -0.0500008 0.00109999
3.35 -0.0500008 0.0011
3.3625 -0.0500008 0.0011
[...]
POINT_DATA 15780
 FIELD attributes 1
U 3 15780 float
30.0002 	-7.01782e-06 	-6.30586e-06 30.0002 	-6.84334e-06 	-6.51453e-06 30.0002 	-6.66885e-06 	-6.7232e-06 30.0002 	-6.49436e-06 	-6.93186e-06 30.0002 	-6.31988e-06 	-7.14053e-06 30.0002 	-6.14539e-06 	-7.3492e-06 30.0004 	-1.2385e-05 	-1.261e-06 30.0004 	-1.2385e-05 	-1.261e-06 30.0004 	-1.2385e-05 	-1.261e-06 30.0004 	-1.2385e-05 	-1.261e-06 30.0002 	-7.04724e-08 	-6.84365e-06 30.0005 	-1.07089e-05 	-1.68706e-06 30.0005 	-1.07089e-05 	-1.68706e-06 30.0005 	-1.07089e-05 	-1.68706e-06 30.0005 	-1.07089e-05 	-1.68706e-06 30.0002 	-7.21464e-08 	-6.59606e-06 30.0005 	-9.95832e-06 	-2.08024e-06 30.0005 	-9.95831e-06 	-2.08024e-06 30.0005 	-9.9583e-06 	-2.08024e-06 30.0005 	-9.9583e-06 	-2.08023e-06 30.0003 	-4.59299e-06 	-6.24724e-06 30.0005 	-9.69154e-06 	-2.34897e-06 30.0005 	-9.69153e-06 	-2.34896e-06 30.0005 	-9.69153e-06 	-2.34896e-06 30.0005 	-9.69152e-06 	-2.34896e-06 30.0003 	-7.57228e-08 	-6.57614e-06 30.0005 	-9.52333e-06 	-2.49784e-06 30.0005 	-9.52332e-06 	-2.49784e-06 30.0005 	-9.52331e-06 	-2.49784e-06 30.0005 	-9.5233e-06 	-2.49783e-06 30.0003 	-7.74697e-08 	-6.52626e-06 30.0005 	-9.38696e-06 	-2.55608e-06 30.0005 	-9.38695e-06 	-2.55608e-06 30.0005 	-9.38694e-06 	-2.55608e-06 30.0005 	-9.38693e-06 	-2.55607e-06 30.0003 	-4.26678e-06 	-6.08528e-06 30.0005 	-9.27953e-06 	-2.55831e-06 30.0005 	-9.27952e-06 	-2.5583e-06 30.0005 	-9.27951e-06 	-2.5583e-06 30.0005 	-9.2795e-06 	-2.5583e-06 30.0003 	-4.19916e-06 	-5.97788e-06 30.0006 	-9.1873e-06 	-2.53044e-06 30.0006 	-9.18729e-06 	-2.53044e-06 30.0006 	-9.18728e-06 	-2.53043e-06 30.0006 	-9.18727e-06 	-2.53043e-06 30.0003 	-8.27418e-08 	-6.20126e-06 30.0006 	-9.09722e-06 	-2.48119e-06 30.0006 	-9.09721e-06 	-2.48119e-06 30.0006 	-9.0972e-06 	-2.48119e-06 30.0006 	-9.0972e-06 	-2.48118e-06 30.0003 	-8.44894e-08 	-6.05423e-06 30.0006 	-9.00476e-06 	-2.41362e-06 30.0006 	-9.00475e-06 	-2.41362e-06 30.0006 	-9.00475e-06 	-2.41361e-06 30.0006 	-9.00474e-06 	-2.41361e-06 30.0003 	-8.62439e-08 	-5.88781e-06 30.0006 	-8.90862e-06 	-2.32973e-06 30.0006 	-8.90861e-06 	-2.32973e-06 30.0006 	-8.9086e-06 	-2.32973e-06 30.0006 	-8.90859e-06 	-2.32972e-06 30.0003 	-3.93772e-06 	-5.36346e-06 30.0006 	-8.80857e-06 	-2.23275e-06 30.0006 	-8.80856e-06 	-2.23275e-06 30.0006 	-8.80856e-06 	-2.23275e-06 30.0006 	-8.80855e-06 	-2.23275e-06 30.0003 	-3.86393e-06 	-5.16475e-06 30.0006 	-8.70427e-06 	-2.12415e-06 30.0006 	-8.70426e-06 	-2.12414e-06 30.0006 	-8.70425e-06 	-2.12414e-06 30.0006 	-8.70425e-06 	-2.12414e-06 30.0003 	-9.14987e-08 	-5.28457e-06 30.0006 	-8.59609e-06 	-2.00508e-06 30.0006 	-8.59608e-06 	-2.00508e-06 30.0006 	-8.59607e-06 	-2.00508e-06 30.0006 	-8.59607e-06 	-2.00507e-06 30.0003 	-3.70432e-06 	-4.71939e-06 30.0007 	-8.48472e-06 	-1.87668e-06 30.0007 	-8.48471e-06 	-1.87668e-06 30.0007 	-8.48471e-06 	-1.87668e-06 30.0007 	-8.4847e-06 	-1.87668e-06 30.0003 	-3.61923e-06 	-4.47431e-06 30.0007 	-8.37138e-06 	-1.73884e-06 30.0007 	-8.37137e-06 	-1.73884e-06 30.0007 	-8.37137e-06 	-1.73884e-06 30.0007 	-8.37136e-06 	-1.73884e-06 30.0004 	-9.6744e-08 	-4.54319e-06 30.0007 	-8.25981e-06 	-1.59803e-06 30.0007 	-8.25981e-06 	-1.59803e-06 30.0007 	-8.2598e-06 	-1.59803e-06 30.0007 	-8.2598e-06 	-1.59803e-06 30.0004 	-9.84932e-08 	-4.27124e-06 30.0007 	-8.14783e-06 	-1.46323e-06 30.0007 	-8.14782e-06 	-1.46323e-06 30.0007 	-8.14782e-06 	-1.46323e-06 30.0007 	-8.14781e-06 	-1.46323e-06 30.0004 	-1.0024e-07 	-3.98927e-06 30.0007 	-8.01977e-06 	-1.32072e-06 30.0007 	-8.01977e-06 	-1.32072e-06 30.0007 	-8.01976e-06 	-1.32072e-06 30.0007 	-8.01976e-06 	-1.32072e-06 30.0004 	-3.2509e-06 	-3.37795e-06 30.0007 	-7.88099e-06 	-1.168e-06 30.0007 	-7.88098e-06 	-1.168e-06 30.0007 	-7.88098e-06 	-1.168e-06 30.0007 	-7.88098e-06 	-1.168e-06 30.0004 	-1.03689e-07 	-3.40288e-06 30.0007 	-7.74508e-06 	-1.00787e-06 30.0007 	-7.74507e-06 	-1.00787e-06 30.0007 	-7.74507e-06 	-1.00787e-06 30.0007 	-7.74507e-06 	-1.00787e-06 30.0004 	-1.05414e-07 	-3.10327e-06 30.0007 	-7.61096e-06 	-8.41858e-07 30.0007 	-7.61096e-06 	-8.41858e-07 30.0007 	-7.61096e-06 	-8.41858e-07 30.0007 	-7.61095e-06 	-8.41857e-07 30.0004 	-2.93177e-06 	-2.48789e-06 30.0007 	-7.4752e-06 	-6.70207e-07 30.0007 	-7.4752e-06 	-6.70206e-07 30.0007 	-7.4752e-06 	-6.70206e-07 30.0007 	-7.47519e-06 	-6.70206e-07 30.0004 	-2.82531e-06 	-2.18313e-06 30.0007 	-7.34309e-06 	-4.97053e-07 30.0007 	-7.34309e-06 	-4.97053e-07 30.0007 	-7.34309e-06 	-4.97053e-07 30.0007 	-7.34309e-06 	-4.97053e-07 30.0004 	-1.10536e-07 	-2.17112e-06 30.0007 	-7.21532e-06 	-3.17325e-07 30.0007 	-7.21532e-06 	-3.17324e-07 30.0007 	-7.21531e-06 	-3.17324e-07 30.0007 	-7.21531e-06 	-3.17324e-07 30.0004 	-1.12225e-07 	-1.85337e-06 30.0007 	-7.0986e-06 	-1.38218e-07 30.0007 	-7.0986e-06 	-1.38218e-07 30.0007 	-7.0986e-06 	-1.38218e-07 30.0007 	-7.0986e-06 	-1.38218e-07 30.0004 	-1.13893e-07 	-1.54903e-06 30.0007 	-6.98528e-06 	4.08534e-08 30.0007 	-6.98528e-06 	4.08534e-08 30.0007 	-6.98528e-06 	4.08534e-08 30.0007 	-6.98528e-06 	4.08534e-08 30.0004 	-2.4389e-06 	-9.58509e-07 30.0007 	-6.87169e-06 	2.14665e-07 30.0007 	-6.87169e-06 	2.14665e-07 30.0007 	-6.87169e-06 	2.14665e-07 30.0007 	-6.87169e-06 	2.14665e-07 30.0004 	-2.3473e-06 	-6.82308e-07 30.0007 	-6.75358e-06 	3.90718e-07 30.0007 	-6.75358e-06 	3.90718e-07 30.0007 	-6.75358e-06 	3.90718e-07 30.0007 	-6.75358e-06 	3.90718e-07 30.0004 	-1.18899e-07 	-7.09781e-07 30.0007 	-6.64311e-06 	5.64376e-07 30.0007 	-6.64311e-06 	5.64376e-07 30.0007 	-6.64311e-06 	5.64376e-07 30.0007 	-6.64312e-06 	5.64376e-07 30.0004 	-2.16699e-06 	-1.45447e-07 30.0007 	-6.53614e-06 	7.27405e-07 30.0007 	-6.53614e-06 	7.27405e-07 30.0007 	-6.53614e-06 	7.27406e-07 30.0007 	-6.53615e-06 	7.27406e-07 30.0004 	-2.08132e-06 	1.1383e-07 30.0007 	-6.43084e-06 	8.78842e-07 30.0007 	-6.43085e-06 	8.78843e-07 30.0007 	-6.43085e-06 	8.78843e-07 30.0007 	-6.43085e-06 	8.78843e-07 30.0004 	-1.23838e-07 	7.05697e-08 30.0007 	-6.32329e-06 	1.0178e-06 30.0007 	-6.32329e-06 	1.0178e-06 30.0007 	-6.3233e-06 	1.0178e-06 30.0007 	-6.3233e-06 	1.0178e-06 30.0004 	-1.25431e-07 	3.15802e-07 30.0007 	-6.21693e-06 	1.14064e-06 30.0007 	-6.21694e-06 	1.14064e-06 30.0007 	-6.21694e-06 	1.14064e-06 30.0007 	-6.21694e-06 	1.14064e-06 30.0004 	-1.27018e-07 	5.45523e-07 30.0007 	-6.11567e-06 	1.25634e-06 30.0007 	-6.11567e-06 	1.25634e-06 30.0007 	-6.11568e-06 	1.25634e-06 30.0007 	-6.11568e-06 	1.25634e-06 30.0004 	-1.76452e-06 	1.03208e-06 30.0007 	-6.02294e-06 	1.37129e-06 30.0007 	-6.02294e-06 	1.37129e-06 30.0007 	-6.02295e-06 	1.37129e-06 30.0007 	-6.02295e-06 	1.37129e-06 30.0004 	-1.30119e-07 	9.36943e-07 30.0007 	-5.94327e-06 	1.48852e-06 30.0007 	-5.94327e-06 	1.48852e-06 30.0007 	-5.94327e-06 	1.48852e-06 30.0007 	-5.94328e-06 	1.48852e-06 30.0004 	-1.31617e-07 	1.10456e-06 30.0007 	-5.87205e-06 	1.59291e-06 30.0007 	-5.87205e-06 	1.59291e-06 30.0007 	-5.87206e-06 	1.59291e-06 30.0007 	-5.87206e-06 	1.59291e-06 30.0004 	-1.59162e-06 	1.53877e-06 30.0007 	-5.80243e-06 	1.67934e-06 30.0007 	-5.80243e-06 	1.67934e-06 30.0007 	-5.80243e-06 	1.67934e-06 30.0007 	-5.80244e-06 	1.67934e-06 30.0003 	-1.54439e-06 	1.67822e-06 30.0007 	-5.73436e-06 	1.75014e-06 30.0007 	-5.73436e-06 	1.75014e-06 30.0007 	-5.73436e-06 	1.75014e-06 30.0007 	-5.73437e-06 	1.75014e-06 30.0003 	-1.36296e-07 	1.52473e-06 30.0006 	-5.66919e-06 	1.80984e-06 30.0006 	-5.66919e-06 	1.80984e-06 30.0006 	-5.6692e-06 	1.80984e-06 30.0006 	-5.6692e-06 	1.80984e-06 30.0003 	-1.37831e-07 	1.63228e-06 30.0006 	-5.60909e-06 	1.85997e-06 30.0006 	-5.60909e-06 	1.85998e-06 30.0006 	-5.6091e-06 	1.85998e-06 30.0006 	-5.6091e-06 	1.85998e-06 30.0003 	-1.39282e-07 	1.72401e-06 30.0006 	-5.55476e-06 	1.90047e-06 30.0006 	-5.55476e-06 	1.90047e-06 30.0006 	-5.55477e-06 	1.90047e-06 30.0006 	-5.55477e-06 	1.90048e-06 30.0003 	-1.38899e-06 	2.07104e-06 30.0006 	-5.50589e-06 	1.93113e-06 30.0006 	-5.50589e-06 	1.93113e-06 30.0006 	-5.50589e-06 	1.93113e-06 30.0006 	-5.5059e-06 	1.93113e-06 30.0003 	-1.36194e-06 	2.13098e-06 30.0006 	-5.46209e-06 	1.95187e-06 30.0006 	-5.4621e-06 	1.95187e-06 30.0006 	-5.4621e-06 	1.95187e-06 30.0006 	-5.4621e-06 	1.95187e-06 30.0003 	-1.4323e-07 	1.90828e-06 30.0006 	-5.42324e-06 	1.96281e-06 30.0006 	-5.42324e-06 	1.96281e-06 30.0006 	-5.42325e-06 	1.96282e-06 30.0006 	-5.42325e-06 	1.96282e-06 30.0003 	-1.32349e-06 	2.20767e-06 30.0006 	-5.38924e-06 	1.96434e-06 30.0006 	-5.38924e-06 	1.96434e-06 30.0006 	-5.38924e-06 	1.96435e-06 30.0006 	-5.38925e-06 	1.96435e-06 30.0003 	-1.3117e-06 	2.22555e-06 30.0006 	-5.36e-06 	1.95694e-06 30.0006 	-5.36001e-06 	1.95694e-06 30.0006 	-5.36001e-06 	1.95694e-06 30.0006 	-5.36001e-06 	1.95694e-06 30.0003 	-1.47004e-07 	1.96619e-06 30.0005 	-5.33542e-06 	1.94113e-06 30.0005 	-5.33542e-06 	1.94114e-06 30.0005 	-5.33543e-06 	1.94114e-06 30.0005 	-5.33543e-06 	1.94114e-06 30.0003 	-1.48213e-07 	1.96059e-06 30.0005 	-5.31538e-06 	1.91794e-06 30.0005 	-5.31539e-06 	1.91794e-06 30.0005 	-5.31539e-06 	1.91794e-06 30.0005 	-5.31539e-06 	1.91795e-06 30.0003 	-1.49406e-07 	1.94426e-06 30.0005 	-5.29974e-06 	1.88801e-06 30.0005 	-5.29975e-06 	1.88801e-06 30.0005 	-5.29975e-06 	1.88801e-06 30.0005 	-5.29975e-06 	1.88801e-06 30.0003 	-1.30903e-06 	2.17901e-06 30.0005 	-5.28835e-06 	1.85191e-06 30.0005 	-5.28835e-06 	1.85191e-06 30.0005 	-5.28836e-06 	1.85191e-06 30.0005 	-5.28836e-06 	1.85191e-06 30.0003 	-1.51707e-07 	1.88231e-06 30.0005 	-5.28101e-06 	1.81008e-06 30.0005 	-5.28102e-06 	1.81008e-06 30.0005 	-5.28102e-06 	1.81008e-06 30.0005 	-5.28102e-06 	1.81008e-06 30.0003 	-1.52803e-07 	1.83819e-06 30.0005 	-5.27753e-06 	1.76315e-06 30.0005 	-5.27754e-06 	1.76316e-06 30.0005 	-5.27754e-06 	1.76316e-06 30.0005 	-5.27755e-06 	1.76316e-06 30.0003 	-1.3482e-06 	2.04409e-06 30.0005 	-5.27766e-06 	1.71162e-06 30.0005 	-5.27767e-06 	1.71162e-06 30.0005 	-5.27767e-06 	1.71162e-06 30.0005 	-5.27767e-06 	1.71162e-06 30.0003 	-1.36824e-06 	1.98425e-06 30.0005 	-5.28118e-06 	1.65598e-06 30.0005 	-5.28118e-06 	1.65598e-06 30.0005 	-5.28118e-06 	1.65598e-06 30.0005 	-5.28119e-06 	1.65598e-06 30.0002 	-1.55959e-07 	1.66282e-06 30.0005 	-5.28794e-06 	1.59666e-06 30.0005 	-5.28794e-06 	1.59667e-06 30.0005 	-5.28794e-06 	1.59667e-06 30.0005 	-5.28795e-06 	1.59667e-06 30.0002 	-1.56998e-07 	1.59257e-06 30.0004 	-5.29786e-06 	1.53414e-06 30.0004 	-5.29787e-06 	1.53414e-06 30.0004 	-5.29787e-06 	1.53414e-06 30.0004 	-5.29787e-06 	1.53414e-06 30.0002 	-1.58063e-07 	1.51771e-06 30.0004 	-5.31078e-06 	1.46888e-06 30.0004 	-5.31078e-06 	1.46888e-06 30.0004 	-5.31078e-06 	1.46888e-06 30.0004 	-5.31079e-06 	1.46888e-06 30.0002 	-1.47986e-06 	1.69064e-06 30.0004 	-5.32629e-06 	1.40142e-06 30.0004 	-5.32629e-06 	1.40142e-06 30.0004 	-5.3263e-06 	1.40142e-06 30.0004 	-5.3263e-06 	1.40142e-06 30.0002 	-1.51437e-06 	1.60715e-06 30.0004 	-5.34414e-06 	1.33217e-06 30.0004 	-5.34414e-06 	1.33217e-06 30.0004 	-5.34414e-06 	1.33217e-06 30.0004 	-5.34415e-06 	1.33217e-06 30.0002 	-1.61269e-07 	1.27188e-06 30.0004 	-5.36413e-06 	1.26146e-06 30.0004 	-5.36413e-06 	1.26146e-06 30.0004 	-5.36413e-06 	1.26146e-06 30.0004 	-5.36413e-06 	1.26146e-06 30.0002 	-1.58968e-06 	1.43252e-06 30.0004 	-5.38592e-06 	1.18979e-06 30.0004 	-5.38593e-06 	1.18979e-06 30.0004 	-5.38593e-06 	1.18979e-06 30.0004 	-5.38593e-06 	1.18979e-06 30.0002 	-1.63016e-06 	1.34244e-06 30.0004 	-5.40951e-06 	1.11746e-06 30.0004 	-5.40951e-06 	1.11746e-06 30.0004 	-5.40952e-06 	1.11746e-06 30.0004 	-5.40952e-06 	1.11746e-06 30.0002 	-1.6426e-07 	1.0061e-06 30.0004 	-5.43462e-06 	1.04478e-06 30.0004 	-5.43462e-06 	1.04478e-06 30.0004 	-5.43462e-06 	1.04478e-06 30.0004 	-5.43462e-06 	1.04478e-06 30.0002 	-1.652e-07 	9.15632e-07 30.0004 	-5.46025e-06 	9.72249e-07 30.0004 	-5.46025e-06 	9.7225e-07 30.0004 	-5.46025e-06 	9.7225e-07 30.0004 	-5.46025e-06 	9.7225e-07 30.0002 	-1.66096e-07 	8.2501e-07 30.0004 	-5.48626e-06 	8.99473e-07 30.0004 	-5.48627e-06 	8.99473e-07 30.0004 	-5.48627e-06 	8.99474e-07 30.0004 	-5.48627e-06 	8.99474e-07 30.0002 	-1.80703e-06 	9.75453e-07 30.0004 	-5.51302e-06 	8.25942e-07 30.0004 	-5.51302e-06 	8.25942e-07 30.0004 	-5.51302e-06 	8.25943e-07 30.0004 	-5.51302e-06 	8.25943e-07 30.0002 	-1.6778e-07 	6.43644e-07 30.0003 	-5.54274e-06 	7.51984e-07 30.0003 	-5.54274e-06 	7.51984e-07 30.0003 	-5.54275e-06 	7.51984e-07 30.0003 	-5.54275e-06 	7.51984e-07 30.0002 	-1.68608e-07 	5.52651e-07 30.0003 	-5.57721e-06 	6.77442e-07 30.0003 	-5.57721e-06 	6.77442e-07 30.0003 	-5.57721e-06 	6.77442e-07 30.0003 	-5.57721e-06 	6.77443e-07 30.0002 	-1.95537e-06 	7.01349e-07 30.0003 	-5.61404e-06 	6.04373e-07 30.0003 	-5.61404e-06 	6.04373e-07 30.0003 	-5.61404e-06 	6.04374e-07 30.0003 	-5.61405e-06 	6.04374e-07 30.0002 	-2.00756e-06 	6.11719e-07 30.0003 	-5.65015e-06 	5.34664e-07 30.0003 	-5.65015e-06 	5.34664e-07 30.0003 	-5.65015e-06 	5.34664e-07 30.0003 	-5.65015e-06 	5.34664e-07 30.0002 	-1.71084e-07 	2.80954e-07 30.0003 	-5.68125e-06 	4.67644e-07 30.0003 	-5.68125e-06 	4.67644e-07 30.0003 	-5.68125e-06 	4.67644e-07 30.0003 	-5.68125e-06 	4.67644e-07 30.0002 	-1.7191e-07 	1.97341e-07 30.0003 	-5.70966e-06 	4.03203e-07 30.0003 	-5.70966e-06 	4.03203e-07 30.0003 	-5.70966e-06 	4.03203e-07 30.0003 	-5.70966e-06 	4.03203e-07 30.0002 	-1.72703e-07 	1.16412e-07 30.0003 	-5.73781e-06 	3.3924e-07 30.0003 	-5.73781e-06 	3.3924e-07 30.0003 	-5.73782e-06 	3.3924e-07 30.0003 	-5.73782e-06 	3.3924e-07 30.0002 	-2.20081e-06 	2.74121e-07 30.0003 	-5.76577e-06 	2.75272e-07 30.0003 	-5.76577e-06 	2.75272e-07 30.0003 	-5.76577e-06 	2.75272e-07 30.0003 	-5.76577e-06 	2.75272e-07 30.0002 	-2.24773e-06 	1.9638e-07 30.0003 	-5.79255e-06 	2.10793e-07 30.0003 	-5.79255e-06 	2.10793e-07 30.0003 	-5.79255e-06 	2.10793e-07 30.0003 	-5.79255e-06 	2.10793e-07 30.0002 	-1.74872e-07 	-1.0913e-07 30.0003 	-5.82058e-06 	1.48793e-07 30.0003 	-5.82058e-06 	1.48793e-07 30.0003 	-5.82058e-06 	1.48793e-07 30.0003 	-5.82058e-06 	1.48793e-07 30.0002 	-2.34151e-06 	4.46999e-08 30.0003 	-5.84982e-06 	8.99987e-08 30.0003 	-5.84982e-06 	8.99987e-08 30.0003 	-5.84982e-06 	8.99987e-08 30.0003 	-5.84982e-06 	8.99987e-08 30.0002 	-2.38882e-06 	-2.90734e-08 30.0003 	-5.88023e-06 	3.48247e-08 30.0003 	-5.88023e-06 	3.48247e-08 30.0003 	-5.88023e-06 	3.48247e-08 30.0003 	-5.88023e-06 	3.48247e-08 30.0002 	-1.76875e-07 	-3.30752e-07 30.0003 	-5.91204e-06 	-1.70516e-08 30.0003 	-5.91204e-06 	-1.70516e-08 30.0003 	-5.91204e-06 	-1.70516e-08 30.0003 	-5.91204e-06 	-1.70516e-08 30.0002 	-1.77508e-07 	-4.01786e-07 30.0003 	-5.94514e-06 	-6.90275e-08 30.0003 	-5.94514e-06 	-6.90275e-08 30.0003 	-5.94514e-06 	-6.90275e-08 30.0003 	-5.94514e-06 	-6.90275e-08 30.0002 	-1.78105e-07 	-4.67058e-07 30.0003 	-5.97708e-06 	-1.23288e-07 30.0003 	-5.97708e-06 	-1.23288e-07 30.0003 	-5.97708e-06 	-1.23288e-07 30.0003 	-5.97707e-06 	-1.23288e-07 30.0002 	-2.58033e-06 	-3.01351e-07 30.0003 	-6.00483e-06 	-1.77932e-07 30.0003 	-6.00483e-06 	-1.77931e-07 30.0003 	-6.00483e-06 	-1.77931e-07 30.0003 	-6.00483e-06 	-1.77931e-07 30.0002 	-1.79269e-07 	-5.84867e-07 30.0003 	-6.02896e-06 	-2.29188e-07 30.0003 	-6.02896e-06 	-2.29188e-07 30.0003 	-6.02896e-06 	-2.29188e-07 30.0003 	-6.02896e-06 	-2.29188e-07 30.0002 	-1.79867e-07 	-6.42127e-07 30.0003 	-6.05218e-06 	-2.76152e-07 30.0003 	-6.05218e-06 	-2.76152e-07 30.0003 	-6.05218e-06 	-2.76151e-07 30.0003 	-6.05218e-06 	-2.76151e-07 30.0002 	-2.70836e-06 	-4.78952e-07 30.0003 	-6.07602e-06 	-3.19635e-07 30.0003 	-6.07602e-06 	-3.19635e-07 30.0003 	-6.07602e-06 	-3.19635e-07 30.0003 	-6.07601e-06 	-3.19635e-07 30.0002 	-2.74939e-06 	-5.33996e-07 30.0003 	-6.10031e-06 	-3.61161e-07 30.0003 	-6.10031e-06 	-3.61161e-07 30.0003 	-6.10031e-06 	-3.61161e-07 30.0003 	-6.10031e-06 	-3.61161e-07 30.0002 	-1.81585e-07 	-8.03764e-07 30.0003 	-6.12434e-06 	-4.01357e-07 30.0003 	-6.12434e-06 	-4.01357e-07 30.0003 	-6.12434e-06 	-4.01357e-07 30.0003 	-6.12433e-06 	-4.01357e-07 30.0001 	-1.82121e-07 	-8.53081e-07 30.0003 	-6.14771e-06 	-4.40352e-07 30.0003 	-6.1477e-06 	-4.40352e-07 30.0003 	-6.1477e-06 	-4.40352e-07 30.0003 	-6.1477e-06 	-4.40352e-07 30.0001 	-1.8264e-07 	-9.0029e-07 30.0003 	-6.17033e-06 	-4.77976e-07 30.0003 	-6.17033e-06 	-4.77976e-07 30.0003 	-6.17033e-06 	-4.77976e-07 30.0003 	-6.17033e-06 	-4.77976e-07 30.0001 	-2.90885e-06 	-7.31427e-07 30.0003 	-6.19209e-06 	-5.14194e-07 30.0003 	-6.19209e-06 	-5.14193e-07 30.0003 	-6.19209e-06 	-5.14193e-07 30.0003 	-6.19209e-06 	-5.14193e-07 30.0001 	-2.94672e-06 	-7.75554e-07 30.0003 	-6.21306e-06 	-5.48813e-07 30.0003 	-6.21305e-06 	-5.48813e-07 30.0003 	-6.21305e-06 	-5.48813e-07 30.0003 	-6.21305e-06 	-5.48813e-07 30.0001 	-1.84136e-07 	-1.0295e-06 30.0003 	-6.23317e-06 	-5.82028e-07 30.0003 	-6.23317e-06 	-5.82028e-07 30.0003 	-6.23317e-06 	-5.82027e-07 30.0003 	-6.23317e-06 	-5.82027e-07 30.0001 	-3.01971e-06 	-8.57443e-07 30.0003 	-6.25242e-06 	-6.13873e-07 30.0003 	-6.25242e-06 	-6.13873e-07 30.0003 	-6.25241e-06 	-6.13873e-07 30.0003 	-6.25241e-06 	-6.13873e-07 30.0001 	-3.0548e-06 	-8.95451e-07 30.0003 	-6.2709e-06 	-6.444e-07 30.0003 	-6.27089e-06 	-6.444e-07 30.0003 	-6.27089e-06 	-6.444e-07 30.0003 	-6.27089e-06 	-6.444e-07 30.0001 	-1.85542e-07 	-1.14082e-06 30.0003 	-6.2887e-06 	-6.73603e-07 30.0003 	-6.2887e-06 	-6.73603e-07 30.0003 	-6.2887e-06 	-6.73602e-07 30.0003 	-6.2887e-06 	-6.73602e-07 30.0001 	-1.86e-07 	-1.17457e-06 30.0003 	-6.3057e-06 	-7.01422e-07 30.0003 	-6.30569e-06 	-7.01422e-07 30.0003 	-6.30569e-06 	-7.01421e-07 30.0003 	-6.30569e-06 	-7.01421e-07 30.0001 	-1.8644e-07 	-1.20665e-06 30.0003 	-6.32176e-06 	-7.27857e-07 30.0003 	-6.32175e-06 	-7.27857e-07 30.0003 	-6.32175e-06 	-7.27857e-07 30.0003 	-6.32175e-06 	-7.27856e-07 30.0001 	-3.18624e-06 	-1.03098e-06 30.0003 	-6.337e-06 	-7.52969e-07 30.0003 	-6.337e-06 	-7.52968e-07 30.0003 	-6.33699e-06 	-7.52968e-07 30.0003 	-6.33699e-06 	-7.52968e-07 30.0001 	-1.87285e-07 	-1.26594e-06 30.0003 	-6.35151e-06 	-7.76938e-07 30.0003 	-6.35151e-06 	-7.76938e-07 30.0003 	-6.35151e-06 	-7.76938e-07 30.0003 	-6.35151e-06 	-7.76937e-07 30.0001 	-1.877e-07 	-1.29329e-06 30.0003 	-6.36529e-06 	-7.99811e-07 30.0003 	-6.36529e-06 	-7.99811e-07 30.0003 	-6.36529e-06 	-7.9981e-07 30.0003 	-6.36529e-06 	-7.9981e-07 30.0001 	-3.27562e-06 	-1.11602e-06 30.0003 	-6.37835e-06 	-8.21543e-07 30.0003 	-6.37835e-06 	-8.21542e-07 30.0003 	-6.37834e-06 	-8.21542e-07 30.0003 	-6.37834e-06 	-8.21542e-07 30.0001 	-3.30373e-06 	-1.1415e-06 30.0003 	-6.39069e-06 	-8.41979e-07 30.0003 	-6.39069e-06 	-8.41979e-07 30.0003 	-6.39069e-06 	-8.41979e-07 30.0003 	-6.39069e-06 	-8.41978e-07 30.0001 	-1.8888e-07 	-1.36684e-06 30.0003 	-6.40231e-06 	-8.61376e-07 30.0003 	-6.40231e-06 	-8.61376e-07 30.0003 	-6.40231e-06 	-8.61376e-07 30.0003 	-6.4023e-06 	-8.61376e-07 30.0001 	-1.8926e-07 	-1.38871e-06 30.0003 	-6.41322e-06 	-8.79817e-07 30.0003 	-6.41322e-06 	-8.79816e-07 30.0003 	-6.41322e-06 	-8.79816e-07 30.0003 	-6.41322e-06 	-8.79816e-07 30.0001 	-1.8963e-07 	-1.40937e-06 30.0003 	-6.42345e-06 	-8.97307e-07 30.0003 	-6.42345e-06 	-8.97306e-07 30.0003 	-6.42344e-06 	-8.97306e-07 30.0003 	-6.42344e-06 	-8.97306e-07 30.0001 	-3.40805e-06 	-1.2305e-06 30.0003 	-6.433e-06 	-9.13894e-07 30.0003 	-6.433e-06 	-9.13893e-07 30.0003 	-6.433e-06 	-9.13893e-07 30.0003 	-6.43299e-06 	-9.13893e-07 30.0001 	-3.43218e-06 	-1.24983e-06 30.0003 	-6.44195e-06 	-9.29581e-07 30.0003 	-6.44195e-06 	-9.2958e-07 30.0003 	-6.44195e-06 	-9.2958e-07 30.0003 	-6.44194e-06 	-9.2958e-07 30.0001 	-1.90734e-07 	-1.46454e-06 30.0003 	-6.45026e-06 	-9.44433e-07 30.0003 	-6.45026e-06 	-9.44433e-07 30.0003 	-6.45026e-06 	-9.44432e-07 30.0003 	-6.45026e-06 	-9.44432e-07 30.0001 	-3.47829e-06 	-1.28532e-06 30.0003 	-6.45793e-06 	-9.58441e-07 30.0003 	-6.45793e-06 	-9.58441e-07 30.0003 	-6.45792e-06 	-9.58441e-07 30.0003 	-6.45792e-06 	-9.5844e-07 30.0001 	-3.50035e-06 	-1.30159e-06 30.0003 	-6.46501e-06 	-9.71735e-07 30.0003 	-6.46501e-06 	-9.71734e-07 30.0003 	-6.465e-06 	-9.71734e-07 30.0003 	-6.465e-06 	-9.71733e-07 30.0001 	-