# vtk DataFile Version 2.0
track0
ASCII
DATASET POLYDATA
POINTS 15780 float
-1.001 -0.05 0.0011
-1.0008 -0.05 0.0011
-1.0006 -0.05 0.0011
-1.0004 -0.05 0.0011
-1.0002 -0.05 0.0011
-1 -0.05 0.0011
-0.9875 -0.05 0.0011
-0.975 -0.05 0.0011
-0.9625 -0.05 0.0011
-0.95 -0.05 0.0011
-0.9375 -0.05 0.00109999
-0.925 -0.05 0.00109999
-0.9125 -0.05 0.00109999
-0.9 -0.05 0.00109999
-0.8875 -0.05 0.00109999
-0.875 -0.05 0.00109999
-0.8625 -0.05 0.00109999
-0.85 -0.05 0.00109999
-0.8375 -0.05 0.00109998
-0.825 -0.0500001 0.00109998
-0.8125 -0.0500001 0.00109998
-0.8 -0.0500001 0.00109998
-0.7875 -0.0500001 0.00109998
-0.775 -0.0500001 0.00109998
-0.7625 -0.0500001 0.00109998
-0.75 -0.0500001 0.00109998
-0.7375 -0.0500001 0.00109997
-0.725 -0.0500001 0.00109997
-0.7125 -0.0500001 0.00109997
-0.7 -0.0500001 0.00109997
-0.6875 -0.0500001 0.00109997
-0.675 -0.0500001 0.00109997
-0.6625 -0.0500001 0.00109997
-0.65 -0.0500001 0.00109996
-0.6375 -0.0500001 0.00109996
-0.625 -0.0500001 0.00109996
-0.6125 -0.0500001 0.00109996
-0.6 -0.0500001 0.00109996
-0.5875 -0.0500001 0.00109996
-0.575 -0.0500001 0.00109996
-0.5625 -0.0500001 0.00109996
-0.55 -0.0500001 0.00109995
-0.5375 -0.0500001 0.00109995
-0.525 -0.0500001 0.00109995
-0.5125 -0.0500001 0.00109995
-0.5 -0.0500001 0.00109995
-0.4875 -0.0500001 0.00109995
-0.475 -0.0500001 0.00109995
-0.4625 -0.0500001 0.00109994
-0.45 -0.0500002 0.00109994
-0.4375 -0.0500002 0.00109994
-0.425 -0.0500002 0.00109994
-0.4125 -0.0500002 0.00109994
-0.4 -0.0500002 0.00109994
-0.3875 -0.0500002 0.00109994
-0.375 -0.0500002 0.00109994
-0.3625 -0.0500002 0.00109993
-0.35 -0.0500002 0.00109993
-0.3375 -0.0500002 0.00109993
-0.325 -0.0500002 0.00109993
-0.3125 -0.0500002 0.00109993
-0.3 -0.0500002 0.00109993
-0.2875 -0.0500002 0.00109993
-0.275 -0.0500002 0.00109993
-0.2625 -0.0500002 0.00109992
-0.25 -0.0500002 0.00109992
-0.2375 -0.0500002 0.00109992
-0.225 -0.0500002 0.00109992
-0.2125 -0.0500002 0.00109992
-0.2 -0.0500002 0.00109992
-0.1875 -0.0500002 0.00109992
-0.175 -0.0500002 0.00109992
-0.1625 -0.0500002 0.00109991
-0.15 -0.0500002 0.00109991
-0.1375 -0.0500002 0.00109991
-0.125 -0.0500002 0.00109991
-0.1125 -0.0500002 0.00109991
-0.1 -0.0500002 0.00109991
-0.0875 -0.0500002 0.00109991
-0.075 -0.0500002 0.00109991
-0.0625 -0.0500002 0.00109991
-0.05 -0.0500003 0.00109991
-0.0375 -0.0500003 0.0010999
-0.025 -0.0500003 0.0010999
-0.0125 -0.0500003 0.0010999
2.10607e-13 -0.0500003 0.0010999
0.0125 -0.0500003 0.0010999
0.025 -0.0500003 0.0010999
0.0375 -0.0500003 0.0010999
0.05 -0.0500003 0.0010999
0.0625 -0.0500003 0.0010999
0.075 -0.0500003 0.0010999
0.0875 -0.0500003 0.0010999
0.1 -0.0500003 0.00109989
0.1125 -0.0500003 0.00109989
0.125 -0.0500003 0.00109989
0.1375 -0.0500003 0.00109989
0.15 -0.0500003 0.00109989
0.1625 -0.0500003 0.00109989
0.175 -0.0500003 0.00109989
0.1875 -0.0500003 0.00109989
0.2 -0.0500003 0.00109989
0.2125 -0.0500003 0.00109989
0.225 -0.0500003 0.00109989
0.2375 -0.0500003 0.00109989
0.25 -0.0500003 0.00109989
0.2625 -0.0500003 0.00109988
0.275 -0.0500003 0.00109988
0.2875 -0.0500003 0.00109988
0.3 -0.0500003 0.00109988
0.3125 -0.0500003 0.00109988
0.325 -0.0500003 0.00109988
0.3375 -0.0500003 0.00109988
0.35 -0.0500003 0.00109988
0.3625 -0.0500003 0.00109988
0.375 -0.0500003 0.00109988
0.3875 -0.0500003 0.00109988
0.4 -0.0500004 0.00109988
0.4125 -0.0500004 0.00109988
0.425 -0.0500004 0.00109988
0.4375 -0.0500004 0.00109988
0.45 -0.0500004 0.00109988
0.4625 -0.0500004 0.00109988
0.475 -0.0500004 0.00109988
0.4875 -0.0500004 0.00109988
0.5 -0.0500004 0.00109988
0.5125 -0.0500004 0.00109988
0.525 -0.0500004 0.00109988
0.5375 -0.0500004 0.00109988
0.55 -0.0500004 0.00109988
0.5625 -0.0500004 0.00109988
0.575 -0.0500004 0.00109987
0.5875 -0.0500004 0.00109987
0.6 -0.0500004 0.00109987
0.6125 -0.0500004 0.00109987
0.625 -0.0500004 0.00109987
0.6375 -0.0500004 0.00109987
0.65 -0.0500004 0.00109987
0.6625 -0.0500004 0.00109987
0.675 -0.0500004 0.00109987
0.6875 -0.0500004 0.00109987
0.7 -0.0500004 0.00109987
0.7125 -0.0500004 0.00109987
0.725 -0.0500004 0.00109987
0.7375 -0.0500004 0.00109987
0.75 -0.0500004 0.00109987
0.7625 -0.0500004 0.00109987
0.775 -0.0500004 0.00109987
0.7875 -0.0500004 0.00109987
0.8 -0.0500004 0.00109987
0.8125 -0.0500004 0.00109987
0.825 -0.0500004 0.00109987
0.8375 -0.0500004 0.00109987
0.85 -0.0500004 0.00109987
0.8625 -0.0500004 0.00109987
0.875 -0.0500004 0.00109987
0.8875 -0.0500004 0.00109987
0.9 -0.0500004 0.00109987
0.9125 -0.0500005 0.00109988
0.925 -0.0500005 0.00109988
0.9375 -0.0500005 0.00109988
0.95 -0.0500005 0.00109988
0.9625 -0.0500005 0.00109988
0.975 -0.0500005 0.00109988
0.9875 -0.0500005 0.00109988
1 -0.0500005 0.00109988
1.0125 -0.0500005 0.00109988
1.025 -0.0500005 0.00109988
1.0375 -0.0500005 0.00109988
1.05 -0.0500005 0.00109988
1.0625 -0.0500005 0.00109988
1.075 -0.0500005 0.00109988
1.0875 -0.0500005 0.00109988
1.1 -0.0500005 0.00109988
1.1125 -0.0500005 0.00109988
1.125 -0.0500005 0.00109988
1.1375 -0.0500005 0.00109988
1.15 -0.0500005 0.00109988
1.1625 -0.0500005 0.00109988
1.175 -0.0500005 0.00109988
1.1875 -0.0500005 0.00109988
1.2 -0.0500005 0.00109988
1.2125 -0.0500005 0.00109988
1.225 -0.0500005 0.00109988
1.2375 -0.0500005 0.00109989
1.25 -0.0500005 0.00109989
1.2625 -0.0500005 0.00109989
1.275 -0.0500005 0.00109989
1.2875 -0.0500005 0.00109989
1.3 -0.0500005 0.00109989
1.3125 -0.0500005 0.00109989
1.325 -0.0500005 0.00109989
1.3375 -0.0500005 0.00109989
1.35 -0.0500005 0.00109989
1.3625 -0.0500005 0.00109989
1.375 -0.0500005 0.00109989
1.3875 -0.0500005 0.00109989
1.4 -0.0500005 0.00109989
1.4125 -0.0500005 0.00109989
1.425 -0.0500005 0.00109989
1.4375 -0.0500005 0.0010999
1.45 -0.0500005 0.0010999
1.4625 -0.0500005 0.0010999
1.475 -0.0500005 0.0010999
1.4875 -0.0500005 0.0010999
1.5 -0.0500006 0.0010999
1.5125 -0.0500006 0.0010999
1.525 -0.0500006 0.0010999
1.5375 -0.0500006 0.0010999
1.55 -0.0500006 0.0010999
1.5625 -0.0500006 0.0010999
1.575 -0.0500006 0.0010999
1.5875 -0.0500006 0.0010999
1.6 -0.0500006 0.0010999
1.6125 -0.0500006 0.00109991
1.625 -0.0500006 0.00109991
1.6375 -0.0500006 0.00109991
1.65 -0.0500006 0.00109991
1.6625 -0.0500006 0.00109991
1.675 -0.0500006 0.00109991
1.6875 -0.0500006 0.00109991
1.7 -0.0500006 0.00109991
1.7125 -0.0500006 0.00109991
1.725 -0.0500006 0.00109991
1.7375 -0.0500006 0.00109991
1.75 -0.0500006 0.00109991
1.7625 -0.0500006 0.00109992
1.775 -0.0500006 0.00109992
1.7875 -0.0500006 0.00109992
1.8 -0.0500006 0.00109992
1.8125 -0.0500006 0.00109992
1.825 -0.0500006 0.00109992
1.8375 -0.0500006 0.00109992
1.85 -0.0500006 0.00109992
1.8625 -0.0500006 0.00109992
1.875 -0.0500006 0.00109992
1.8875 -0.0500006 0.00109992
1.9 -0.0500006 0.00109992
1.9125 -0.0500006 0.00109993
1.925 -0.0500006 0.00109993
1.9375 -0.0500006 0.00109993
1.95 -0.0500006 0.00109993
1.9625 -0.0500006 0.00109993
1.975 -0.0500006 0.00109993
1.9875 -0.0500006 0.00109993
2 -0.0500006 0.00109993
2.0125 -0.0500006 0.00109993
2.025 -0.0500006 0.00109993
2.0375 -0.0500006 0.00109993
2.05 -0.0500006 0.00109993
2.0625 -0.0500006 0.00109994
2.075 -0.0500006 0.00109994
2.0875 -0.0500006 0.00109994
2.1 -0.0500006 0.00109994
2.1125 -0.0500006 0.00109994
2.125 -0.0500006 0.00109994
2.1375 -0.0500006 0.00109994
2.15 -0.0500006 0.00109994
2.1625 -0.0500006 0.00109994
2.175 -0.0500007 0.00109994
2.1875 -0.0500007 0.00109994
2.2 -0.0500007 0.00109994
2.2125 -0.0500007 0.00109994
2.225 -0.0500007 0.00109995
2.2375 -0.0500007 0.00109995
2.25 -0.0500007 0.00109995
2.2625 -0.0500007 0.00109995
2.275 -0.0500007 0.00109995
2.2875 -0.0500007 0.00109995
2.3 -0.0500007 0.00109995
2.3125 -0.0500007 0.00109995
2.325 -0.0500007 0.00109995
2.3375 -0.0500007 0.00109995
2.35 -0.0500007 0.00109995
2.3625 -0.0500007 0.00109995
2.375 -0.0500007 0.00109995
2.3875 -0.0500007 0.00109996
2.4 -0.0500007 0.00109996
2.4125 -0.0500007 0.00109996
2.425 -0.0500007 0.00109996
2.4375 -0.0500007 0.00109996
2.45 -0.0500007 0.00109996
2.4625 -0.0500007 0.00109996
2.475 -0.0500007 0.00109996
2.4875 -0.0500007 0.00109996
2.5 -0.0500007 0.00109996
2.5125 -0.0500007 0.00109996
2.525 -0.0500007 0.00109996
2.5375 -0.0500007 0.00109996
2.55 -0.0500007 0.00109996
2.5625 -0.0500007 0.00109997
2.575 -0.0500007 0.00109997
2.5875 -0.0500007 0.00109997
2.6 -0.0500007 0.00109997
2.6125 -0.0500007 0.00109997
2.625 -0.0500007 0.00109997
2.6375 -0.0500007 0.00109997
2.65 -0.0500007 0.00109997
2.6625 -0.0500007 0.00109997
2.675 -0.0500007 0.00109997
2.6875 -0.0500007 0.00109997
2.7 -0.0500007 0.00109997
2.7125 -0.0500007 0.00109997
2.725 -0.0500007 0.00109997
2.7375 -0.0500007 0.00109997
2.75 -0.0500007 0.00109997
2.7625 -0.0500007 0.00109998
2.775 -0.0500007 0.00109998
2.7875 -0.0500007 0.00109998
2.8 -0.0500007 0.00109998
2.8125 -0.0500007 0.00109998
2.825 -0.0500007 0.00109998
2.8375 -0.0500007 0.00109998
2.85 -0.0500007 0.00109998
2.8625 -0.0500008 0.00109998
2.875 -0.0500008 0.00109998
2.8875 -0.0500008 0.00109998
2.9 -0.0500008 0.00109998
2.9125 -0.0500008 0.00109998
2.925 -0.0500008 0.00109998
2.9375 -0.0500008 0.00109998
2.95 -0.0500008 0.00109998
2.9625 -0.0500008 0.00109998
2.975 -0.0500008 0.00109998
2.9875 -0.0500008 0.00109998
3 -0.0500008 0.00109998
3.0125 -0.0500008 0.00109999
3.025 -0.0500008 0.00109999
3.0375 -0.0500008 0.00109999
3.05 -0.0500008 0.00109999
3.0625 -0.0500008 0.00109999
3.075 -0.0500008 0.00109999
3.0875 -0.0500008 0.00109999
3.1 -0.0500008 0.00109999
3.1125 -0.0500008 0.00109999
3.125 -0.0500008 0.00109999
3.1375 -0.0500008 0.00109999
3.15 -0.0500008 0.00109999
3.1625 -0.0500008 0.00109999
3.175 -0.0500008 0.00109999
3.1875 -0.0500008 0.00109999
3.2 -0.0500008 0.00109999
3.2125 -0.0500008 0.00109999
3.225 -0.0500008 0.00109999
3.2375 -0.0500008 0.00109999
3.25 -0.0500008 0.00109999
3.2625 -0.0500008 0.00109999
3.275 -0.0500008 0.00109999
3.2875 -0.0500008 0.00109999
3.3 -0.0500008 0.00109999
3.3125 -0.0500008 0.00109999
3.325 -0.0500008 0.00109999
3.3375 -0.0500008 0.00109999
3.35 -0.0500008 0.0011
3.3625 -0.0500008 0.0011
[...]
POINT_DATA 15780
 FIELD attributes 1
U 3 15780 float
30.0002 	-7.01788e-06 	-6.30587e-06 30.0002 	-6.84339e-06 	-6.51453e-06 30.0002 	-6.6689e-06 	-6.7232e-06 30.0002 	-6.49441e-06 	-6.93187e-06 30.0002 	-6.31993e-06 	-7.14053e-06 30.0002 	-6.14544e-06 	-7.3492e-06 30.0004 	-1.23851e-05 	-1.26101e-06 30.0004 	-1.23851e-05 	-1.26101e-06 30.0004 	-1.23851e-05 	-1.26101e-06 30.0004 	-1.23851e-05 	-1.261e-06 30.0002 	-7.05125e-08 	-6.84366e-06 30.0005 	-1.0709e-05 	-1.68706e-06 30.0005 	-1.0709e-05 	-1.68706e-06 30.0005 	-1.0709e-05 	-1.68706e-06 30.0005 	-1.0709e-05 	-1.68706e-06 30.0002 	-7.21882e-08 	-6.59607e-06 30.0005 	-9.95843e-06 	-2.08024e-06 30.0005 	-9.95842e-06 	-2.08024e-06 30.0005 	-9.95841e-06 	-2.08024e-06 30.0005 	-9.95841e-06 	-2.08024e-06 30.0003 	-4.59305e-06 	-6.24725e-06 30.0005 	-9.69165e-06 	-2.34897e-06 30.0005 	-9.69164e-06 	-2.34897e-06 30.0005 	-9.69164e-06 	-2.34896e-06 30.0005 	-9.69163e-06 	-2.34896e-06 30.0003 	-7.57633e-08 	-6.57615e-06 30.0005 	-9.52344e-06 	-2.49784e-06 30.0005 	-9.52343e-06 	-2.49784e-06 30.0005 	-9.52342e-06 	-2.49784e-06 30.0005 	-9.52341e-06 	-2.49783e-06 30.0003 	-7.75082e-08 	-6.52626e-06 30.0005 	-9.38707e-06 	-2.55608e-06 30.0005 	-9.38706e-06 	-2.55608e-06 30.0005 	-9.38705e-06 	-2.55608e-06 30.0005 	-9.38704e-06 	-2.55607e-06 30.0003 	-4.26684e-06 	-6.08528e-06 30.0005 	-9.27964e-06 	-2.5583e-06 30.0005 	-9.27963e-06 	-2.5583e-06 30.0005 	-9.27963e-06 	-2.5583e-06 30.0005 	-9.27962e-06 	-2.5583e-06 30.0003 	-4.19922e-06 	-5.97789e-06 30.0006 	-9.1874e-06 	-2.53044e-06 30.0006 	-9.18739e-06 	-2.53043e-06 30.0006 	-9.18739e-06 	-2.53043e-06 30.0006 	-9.18738e-06 	-2.53043e-06 30.0003 	-8.27752e-08 	-6.20126e-06 30.0006 	-9.09732e-06 	-2.48119e-06 30.0006 	-9.09731e-06 	-2.48119e-06 30.0006 	-9.0973e-06 	-2.48118e-06 30.0006 	-9.0973e-06 	-2.48118e-06 30.0003 	-8.45207e-08 	-6.05423e-06 30.0006 	-9.00486e-06 	-2.41362e-06 30.0006 	-9.00486e-06 	-2.41361e-06 30.0006 	-9.00485e-06 	-2.41361e-06 30.0006 	-9.00484e-06 	-2.41361e-06 30.0003 	-8.6274e-08 	-5.88782e-06 30.0006 	-8.90872e-06 	-2.32973e-06 30.0006 	-8.90871e-06 	-2.32973e-06 30.0006 	-8.9087e-06 	-2.32972e-06 30.0006 	-8.9087e-06 	-2.32972e-06 30.0003 	-3.93778e-06 	-5.36347e-06 30.0006 	-8.80868e-06 	-2.23275e-06 30.0006 	-8.80867e-06 	-2.23275e-06 30.0006 	-8.80866e-06 	-2.23274e-06 30.0006 	-8.80865e-06 	-2.23274e-06 30.0003 	-3.86399e-06 	-5.16476e-06 30.0006 	-8.70437e-06 	-2.12414e-06 30.0006 	-8.70436e-06 	-2.12414e-06 30.0006 	-8.70435e-06 	-2.12414e-06 30.0006 	-8.70435e-06 	-2.12414e-06 30.0003 	-9.15219e-08 	-5.28457e-06 30.0006 	-8.59617e-06 	-2.00508e-06 30.0006 	-8.59617e-06 	-2.00508e-06 30.0006 	-8.59616e-06 	-2.00507e-06 30.0006 	-8.59615e-06 	-2.00507e-06 30.0003 	-3.70436e-06 	-4.7194e-06 30.0007 	-8.4848e-06 	-1.87668e-06 30.0007 	-8.4848e-06 	-1.87668e-06 30.0007 	-8.48479e-06 	-1.87668e-06 30.0007 	-8.48479e-06 	-1.87667e-06 30.0003 	-3.61927e-06 	-4.47431e-06 30.0007 	-8.37146e-06 	-1.73884e-06 30.0007 	-8.37145e-06 	-1.73884e-06 30.0007 	-8.37145e-06 	-1.73884e-06 30.0007 	-8.37144e-06 	-1.73883e-06 30.0004 	-9.67543e-08 	-4.54319e-06 30.0007 	-8.25987e-06 	-1.59804e-06 30.0007 	-8.25987e-06 	-1.59804e-06 30.0007 	-8.25986e-06 	-1.59803e-06 30.0007 	-8.25986e-06 	-1.59803e-06 30.0004 	-9.84955e-08 	-4.27124e-06 30.0007 	-8.14789e-06 	-1.46323e-06 30.0007 	-8.14788e-06 	-1.46323e-06 30.0007 	-8.14788e-06 	-1.46323e-06 30.0007 	-8.14787e-06 	-1.46323e-06 30.0004 	-1.0024e-07 	-3.98927e-06 30.0007 	-8.01984e-06 	-1.32072e-06 30.0007 	-8.01983e-06 	-1.32072e-06 30.0007 	-8.01983e-06 	-1.32072e-06 30.0007 	-8.01982e-06 	-1.32072e-06 30.0004 	-3.25094e-06 	-3.37796e-06 30.0007 	-7.88105e-06 	-1.16801e-06 30.0007 	-7.88105e-06 	-1.16801e-06 30.0007 	-7.88105e-06 	-1.16801e-06 30.0007 	-7.88104e-06 	-1.16801e-06 30.0004 	-1.03688e-07 	-3.40289e-06 30.0007 	-7.74514e-06 	-1.00788e-06 30.0007 	-7.74514e-06 	-1.00788e-06 30.0007 	-7.74513e-06 	-1.00788e-06 30.0007 	-7.74513e-06 	-1.00788e-06 30.0004 	-1.0541e-07 	-3.10328e-06 30.0007 	-7.61103e-06 	-8.41866e-07 30.0007 	-7.61102e-06 	-8.41866e-07 30.0007 	-7.61102e-06 	-8.41866e-07 30.0007 	-7.61102e-06 	-8.41866e-07 30.0004 	-2.9318e-06 	-2.48789e-06 30.0007 	-7.47527e-06 	-6.70215e-07 30.0007 	-7.47527e-06 	-6.70215e-07 30.0007 	-7.47527e-06 	-6.70215e-07 30.0007 	-7.47526e-06 	-6.70215e-07 30.0004 	-2.82534e-06 	-2.18314e-06 30.0007 	-7.34315e-06 	-4.97063e-07 30.0007 	-7.34315e-06 	-4.97063e-07 30.0007 	-7.34315e-06 	-4.97063e-07 30.0007 	-7.34315e-06 	-4.97062e-07 30.0004 	-1.10528e-07 	-2.17112e-06 30.0007 	-7.21537e-06 	-3.17336e-07 30.0007 	-7.21537e-06 	-3.17336e-07 30.0007 	-7.21537e-06 	-3.17336e-07 30.0007 	-7.21537e-06 	-3.17336e-07 30.0004 	-1.12216e-07 	-1.85338e-06 30.0007 	-7.09865e-06 	-1.38231e-07 30.0007 	-7.09865e-06 	-1.38231e-07 30.0007 	-7.09865e-06 	-1.38231e-07 30.0007 	-7.09865e-06 	-1.38231e-07 30.0004 	-1.13886e-07 	-1.54904e-06 30.0007 	-6.98534e-06 	4.08384e-08 30.0007 	-6.98534e-06 	4.08384e-08 30.0007 	-6.98534e-06 	4.08384e-08 30.0007 	-6.98534e-06 	4.08384e-08 30.0004 	-2.43894e-06 	-9.58518e-07 30.0007 	-6.87176e-06 	2.1465e-07 30.0007 	-6.87176e-06 	2.1465e-07 30.0007 	-6.87176e-06 	2.1465e-07 30.0007 	-6.87176e-06 	2.1465e-07 30.0004 	-2.34734e-06 	-6.82317e-07 30.0007 	-6.75363e-06 	3.90701e-07 30.0007 	-6.75364e-06 	3.90701e-07 30.0007 	-6.75364e-06 	3.90701e-07 30.0007 	-6.75364e-06 	3.90701e-07 30.0004 	-1.18887e-07 	-7.09791e-07 30.0007 	-6.64316e-06 	5.64356e-07 30.0007 	-6.64316e-06 	5.64356e-07 30.0007 	-6.64316e-06 	5.64356e-07 30.0007 	-6.64316e-06 	5.64356e-07 30.0004 	-2.16702e-06 	-1.45458e-07 30.0007 	-6.53619e-06 	7.27384e-07 30.0007 	-6.5362e-06 	7.27384e-07 30.0007 	-6.5362e-06 	7.27384e-07 30.0007 	-6.5362e-06 	7.27385e-07 30.0004 	-2.08136e-06 	1.13819e-07 30.0007 	-6.4309e-06 	8.78822e-07 30.0007 	-6.4309e-06 	8.78822e-07 30.0007 	-6.4309e-06 	8.78823e-07 30.0007 	-6.4309e-06 	8.78823e-07 30.0004 	-1.23823e-07 	7.05562e-08 30.0007 	-6.32332e-06 	1.01778e-06 30.0007 	-6.32333e-06 	1.01778e-06 30.0007 	-6.32333e-06 	1.01778e-06 30.0007 	-6.32333e-06 	1.01778e-06 30.0004 	-1.25413e-07 	3.15787e-07 30.0007 	-6.21697e-06 	1.14061e-06 30.0007 	-6.21697e-06 	1.14061e-06 30.0007 	-6.21698e-06 	1.14061e-06 30.0007 	-6.21698e-06 	1.14061e-06 30.0004 	-1.27002e-07 	5.45508e-07 30.0007 	-6.11572e-06 	1.25632e-06 30.0007 	-6.11572e-06 	1.25632e-06 30.0007 	-6.11572e-06 	1.25632e-06 30.0007 	-6.11573e-06 	1.25632e-06 30.0004 	-1.76456e-06 	1.03206e-06 30.0007 	-6.02299e-06 	1.37127e-06 30.0007 	-6.023e-06 	1.37127e-06 30.0007 	-6.023e-06 	1.37127e-06 30.0007 	-6.023e-06 	1.37127e-06 30.0004 	-1.30109e-07 	9.36928e-07 30.0007 	-5.94332e-06 	1.48849e-06 30.0007 	-5.94333e-06 	1.4885e-06 30.0007 	-5.94333e-06 	1.4885e-06 30.0007 	-5.94333e-06 	1.4885e-06 30.0004 	-1.31609e-07 	1.10455e-06 30.0007 	-5.87211e-06 	1.59288e-06 30.0007 	-5.87211e-06 	1.59289e-06 30.0007 	-5.87212e-06 	1.59289e-06 30.0007 	-5.87212e-06 	1.59289e-06 30.0004 	-1.59167e-06 	1.53876e-06 30.0007 	-5.80249e-06 	1.67931e-06 30.0007 	-5.8025e-06 	1.67931e-06 30.0007 	-5.8025e-06 	1.67932e-06 30.0007 	-5.80251e-06 	1.67932e-06 30.0003 	-1.54444e-06 	1.6782e-06 30.0007 	-5.73442e-06 	1.75011e-06 30.0007 	-5.73442e-06 	1.75011e-06 30.0007 	-5.73442e-06 	1.75011e-06 30.0007 	-5.73443e-06 	1.75011e-06 30.0003 	-1.36292e-07 	1.52472e-06 30.0006 	-5.66925e-06 	1.80982e-06 30.0006 	-5.66926e-06 	1.80982e-06 30.0006 	-5.66926e-06 	1.80982e-06 30.0006 	-5.66927e-06 	1.80982e-06 30.0003 	-1.37829e-07 	1.63226e-06 30.0006 	-5.60916e-06 	1.85995e-06 30.0006 	-5.60916e-06 	1.85995e-06 30.0006 	-5.60917e-06 	1.85995e-06 30.0006 	-5.60917e-06 	1.85995e-06 30.0003 	-1.39282e-07 	1.72399e-06 30.0006 	-5.55484e-06 	1.90045e-06 30.0006 	-5.55484e-06 	1.90045e-06 30.0006 	-5.55484e-06 	1.90045e-06 30.0006 	-5.55485e-06 	1.90045e-06 30.0003 	-1.38905e-06 	2.07103e-06 30.0006 	-5.50597e-06 	1.93111e-06 30.0006 	-5.50597e-06 	1.93111e-06 30.0006 	-5.50598e-06 	1.93111e-06 30.0006 	-5.50598e-06 	1.93111e-06 30.0003 	-1.362e-06 	2.13096e-06 30.0006 	-5.46216e-06 	1.95184e-06 30.0006 	-5.46217e-06 	1.95184e-06 30.0006 	-5.46217e-06 	1.95184e-06 30.0006 	-5.46218e-06 	1.95185e-06 30.0003 	-1.43227e-07 	1.90826e-06 30.0006 	-5.42329e-06 	1.96279e-06 30.0006 	-5.42329e-06 	1.96279e-06 30.0006 	-5.4233e-06 	1.96279e-06 30.0006 	-5.4233e-06 	1.96279e-06 30.0003 	-1.32354e-06 	2.20766e-06 30.0006 	-5.38929e-06 	1.96432e-06 30.0006 	-5.3893e-06 	1.96432e-06 30.0006 	-5.3893e-06 	1.96432e-06 30.0006 	-5.3893e-06 	1.96432e-06 30.0003 	-1.31174e-06 	2.22554e-06 30.0006 	-5.36006e-06 	1.95692e-06 30.0006 	-5.36006e-06 	1.95692e-06 30.0006 	-5.36007e-06 	1.95692e-06 30.0006 	-5.36007e-06 	1.95692e-06 30.0003 	-1.46993e-07 	1.96617e-06 30.0005 	-5.33545e-06 	1.94111e-06 30.0005 	-5.33545e-06 	1.94111e-06 30.0005 	-5.33546e-06 	1.94112e-06 30.0005 	-5.33546e-06 	1.94112e-06 30.0003 	-1.48195e-07 	1.96057e-06 30.0005 	-5.31541e-06 	1.91792e-06 30.0005 	-5.31542e-06 	1.91792e-06 30.0005 	-5.31542e-06 	1.91792e-06 30.0005 	-5.31543e-06 	1.91792e-06 30.0003 	-1.49388e-07 	1.94424e-06 30.0005 	-5.29978e-06 	1.88799e-06 30.0005 	-5.29979e-06 	1.88799e-06 30.0005 	-5.29979e-06 	1.88799e-06 30.0005 	-5.29979e-06 	1.88799e-06 30.0003 	-1.30907e-06 	2.179e-06 30.0005 	-5.2884e-06 	1.85188e-06 30.0005 	-5.2884e-06 	1.85189e-06 30.0005 	-5.2884e-06 	1.85189e-06 30.0005 	-5.28841e-06 	1.85189e-06 30.0003 	-1.51691e-07 	1.8823e-06 30.0005 	-5.28106e-06 	1.81006e-06 30.0005 	-5.28106e-06 	1.81006e-06 30.0005 	-5.28107e-06 	1.81006e-06 30.0005 	-5.28107e-06 	1.81006e-06 30.0003 	-1.52787e-07 	1.83817e-06 30.0005 	-5.27758e-06 	1.76313e-06 30.0005 	-5.27759e-06 	1.76313e-06 30.0005 	-5.27759e-06 	1.76313e-06 30.0005 	-5.27759e-06 	1.76314e-06 30.0003 	-1.34824e-06 	2.04408e-06 30.0005 	-5.27772e-06 	1.71159e-06 30.0005 	-5.27772e-06 	1.71159e-06 30.0005 	-5.27772e-06 	1.71159e-06 30.0005 	-5.27773e-06 	1.71159e-06 30.0003 	-1.36829e-06 	1.98424e-06 30.0005 	-5.28121e-06 	1.65596e-06 30.0005 	-5.28122e-06 	1.65596e-06 30.0005 	-5.28122e-06 	1.65596e-06 30.0005 	-5.28122e-06 	1.65596e-06 30.0002 	-1.55938e-07 	1.6628e-06 30.0005 	-5.28797e-06 	1.59664e-06 30.0005 	-5.28797e-06 	1.59664e-06 30.0005 	-5.28797e-06 	1.59664e-06 30.0005 	-5.28798e-06 	1.59664e-06 30.0002 	-1.56975e-07 	1.59256e-06 30.0004 	-5.2979e-06 	1.53412e-06 30.0004 	-5.2979e-06 	1.53412e-06 30.0004 	-5.2979e-06 	1.53412e-06 30.0004 	-5.2979e-06 	1.53412e-06 30.0002 	-1.58041e-07 	1.51769e-06 30.0004 	-5.31081e-06 	1.46885e-06 30.0004 	-5.31082e-06 	1.46885e-06 30.0004 	-5.31082e-06 	1.46885e-06 30.0004 	-5.31082e-06 	1.46885e-06 30.0002 	-1.4799e-06 	1.69062e-06 30.0004 	-5.32633e-06 	1.4014e-06 30.0004 	-5.32633e-06 	1.4014e-06 30.0004 	-5.32633e-06 	1.4014e-06 30.0004 	-5.32634e-06 	1.4014e-06 30.0002 	-1.5144e-06 	1.60713e-06 30.0004 	-5.34416e-06 	1.33215e-06 30.0004 	-5.34416e-06 	1.33215e-06 30.0004 	-5.34416e-06 	1.33215e-06 30.0004 	-5.34416e-06 	1.33215e-06 30.0002 	-1.61234e-07 	1.27187e-06 30.0004 	-5.36411e-06 	1.26143e-06 30.0004 	-5.36412e-06 	1.26143e-06 30.0004 	-5.36412e-06 	1.26143e-06 30.0004 	-5.36412e-06 	1.26143e-06 30.0002 	-1.5897e-06 	1.4325e-06 30.0004 	-5.38591e-06 	1.18976e-06 30.0004 	-5.38592e-06 	1.18976e-06 30.0004 	-5.38592e-06 	1.18976e-06 30.0004 	-5.38592e-06 	1.18976e-06 30.0002 	-1.63018e-06 	1.34242e-06 30.0004 	-5.4095e-06 	1.11743e-06 30.0004 	-5.4095e-06 	1.11743e-06 30.0004 	-5.4095e-06 	1.11743e-06 30.0004 	-5.4095e-06 	1.11743e-06 30.0002 	-1.64211e-07 	1.00608e-06 30.0004 	-5.43457e-06 	1.04475e-06 30.0004 	-5.43457e-06 	1.04475e-06 30.0004 	-5.43457e-06 	1.04475e-06 30.0004 	-5.43458e-06 	1.04475e-06 30.0002 	-1.65142e-07 	9.15611e-07 30.0004 	-5.4602e-06 	9.72218e-07 30.0004 	-5.4602e-06 	9.72218e-07 30.0004 	-5.4602e-06 	9.72218e-07 30.0004 	-5.4602e-06 	9.72219e-07 30.0002 	-1.66038e-07 	8.24988e-07 30.0004 	-5.48622e-06 	8.99439e-07 30.0004 	-5.48622e-06 	8.99439e-07 30.0004 	-5.48622e-06 	8.99439e-07 30.0004 	-5.48622e-06 	8.9944e-07 30.0002 	-1.80704e-06 	9.75431e-07 30.0004 	-5.51298e-06 	8.2591e-07 30.0004 	-5.51298e-06 	8.2591e-07 30.0004 	-5.51298e-06 	8.2591e-07 30.0004 	-5.51298e-06 	8.2591e-07 30.0002 	-1.67722e-07 	6.43622e-07 30.0003 	-5.5427e-06 	7.51951e-07 30.0003 	-5.5427e-06 	7.51951e-07 30.0003 	-5.5427e-06 	7.51951e-07 30.0003 	-5.5427e-06 	7.51951e-07 30.0002 	-1.68548e-07 	5.52628e-07 30.0003 	-5.57717e-06 	6.77408e-07 30.0003 	-5.57717e-06 	6.77409e-07 30.0003 	-5.57717e-06 	6.77409e-07 30.0003 	-5.57717e-06 	6.77409e-07 30.0002 	-1.95538e-06 	7.01327e-07 30.0003 	-5.614e-06 	6.04339e-07 30.0003 	-5.614e-06 	6.04339e-07 30.0003 	-5.61401e-06 	6.04339e-07 30.0003 	-5.61401e-06 	6.0434e-07 30.0002 	-2.00756e-06 	6.11698e-07 30.0003 	-5.65008e-06 	5.3463e-07 30.0003 	-5.65008e-06 	5.3463e-07 30.0003 	-5.65008e-06 	5.34631e-07 30.0003 	-5.65008e-06 	5.34631e-07 30.0002 	-1.71019e-07 	2.80933e-07 30.0003 	-5.68117e-06 	4.67611e-07 30.0003 	-5.68118e-06 	4.67611e-07 30.0003 	-5.68118e-06 	4.67611e-07 30.0003 	-5.68118e-06 	4.67611e-07 30.0002 	-1.71843e-07 	1.9732e-07 30.0003 	-5.70958e-06 	4.03169e-07 30.0003 	-5.70958e-06 	4.0317e-07 30.0003 	-5.70958e-06 	4.0317e-07 30.0003 	-5.70959e-06 	4.0317e-07 30.0002 	-1.72637e-07 	1.1639e-07 30.0003 	-5.73774e-06 	3.39205e-07 30.0003 	-5.73774e-06 	3.39205e-07 30.0003 	-5.73774e-06 	3.39205e-07 30.0003 	-5.73774e-06 	3.39205e-07 30.0002 	-2.20081e-06 	2.74102e-07 30.0003 	-5.7657e-06 	2.75238e-07 30.0003 	-5.7657e-06 	2.75238e-07 30.0003 	-5.7657e-06 	2.75238e-07 30.0003 	-5.7657e-06 	2.75238e-07 30.0002 	-2.24773e-06 	1.96361e-07 30.0003 	-5.79246e-06 	2.10759e-07 30.0003 	-5.79246e-06 	2.10759e-07 30.0003 	-5.79246e-06 	2.10759e-07 30.0003 	-5.79246e-06 	2.10759e-07 30.0002 	-1.74797e-07 	-1.09151e-07 30.0003 	-5.82046e-06 	1.48758e-07 30.0003 	-5.82046e-06 	1.48758e-07 30.0003 	-5.82046e-06 	1.48758e-07 30.0003 	-5.82046e-06 	1.48758e-07 30.0002 	-2.3415e-06 	4.46795e-08 30.0003 	-5.84971e-06 	8.99633e-08 30.0003 	-5.84971e-06 	8.99633e-08 30.0003 	-5.84971e-06 	8.99633e-08 30.0003 	-5.84971e-06 	8.99633e-08 30.0002 	-2.3888e-06 	-2.90925e-08 30.0003 	-5.88012e-06 	3.47929e-08 30.0003 	-5.88012e-06 	3.47929e-08 30.0003 	-5.88012e-06 	3.47929e-08 30.0003 	-5.88012e-06 	3.47929e-08 30.0002 	-1.7679e-07 	-3.30774e-07 30.0003 	-5.9119e-06 	-1.70846e-08 30.0003 	-5.9119e-06 	-1.70846e-08 30.0003 	-5.9119e-06 	-1.70846e-08 30.0003 	-5.9119e-06 	-1.70845e-08 30.0002 	-1.77418e-07 	-4.01807e-07 30.0003 	-5.945e-06 	-6.90613e-08 30.0003 	-5.945e-06 	-6.90613e-08 30.0003 	-5.945e-06 	-6.90613e-08 30.0003 	-5.945e-06 	-6.90613e-08 30.0002 	-1.78016e-07 	-4.67079e-07 30.0003 	-5.97694e-06 	-1.23324e-07 30.0003 	-5.97694e-06 	-1.23324e-07 30.0003 	-5.97694e-06 	-1.23324e-07 30.0003 	-5.97694e-06 	-1.23324e-07 30.0002 	-2.5803e-06 	-3.01368e-07 30.0003 	-6.0047e-06 	-1.77965e-07 30.0003 	-6.0047e-06 	-1.77965e-07 30.0003 	-6.0047e-06 	-1.77965e-07 30.0003 	-6.0047e-06 	-1.77965e-07 30.0002 	-1.79183e-07 	-5.84887e-07 30.0003 	-6.02883e-06 	-2.29221e-07 30.0003 	-6.02883e-06 	-2.29221e-07 30.0003 	-6.02883e-06 	-2.29221e-07 30.0003 	-6.02883e-06 	-2.29221e-07 30.0002 	-1.79782e-07 	-6.42147e-07 30.0003 	-6.05206e-06 	-2.76185e-07 30.0003 	-6.05206e-06 	-2.76185e-07 30.0003 	-6.05206e-06 	-2.76185e-07 30.0003 	-6.05206e-06 	-2.76185e-07 30.0002 	-2.70834e-06 	-4.78968e-07 30.0003 	-6.0759e-06 	-3.19669e-07 30.0003 	-6.07589e-06 	-3.19669e-07 30.0003 	-6.07589e-06 	-3.19669e-07 30.0003 	-6.07589e-06 	-3.19669e-07 30.0002 	-2.74937e-06 	-5.3401e-07 30.0003 	-6.10018e-06 	-3.61194e-07 30.0003 	-6.10017e-06 	-3.61194e-07 30.0003 	-6.10017e-06 	-3.61194e-07 30.0003 	-6.10017e-06 	-3.61194e-07 30.0002 	-1.81499e-07 	-8.03782e-07 30.0003 	-6.1242e-06 	-4.01389e-07 30.0003 	-6.1242e-06 	-4.01389e-07 30.0003 	-6.12419e-06 	-4.01389e-07 30.0003 	-6.12419e-06 	-4.01389e-07 30.0001 	-1.82035e-07 	-8.53099e-07 30.0003 	-6.14756e-06 	-4.40384e-07 30.0003 	-6.14756e-06 	-4.40384e-07 30.0003 	-6.14756e-06 	-4.40384e-07 30.0003 	-6.14756e-06 	-4.40383e-07 30.0001 	-1.82555e-07 	-9.00308e-07 30.0003 	-6.17019e-06 	-4.7801e-07 30.0003 	-6.17019e-06 	-4.7801e-07 30.0003 	-6.17019e-06 	-4.7801e-07 30.0003 	-6.17019e-06 	-4.7801e-07 30.0001 	-2.90882e-06 	-7.3144e-07 30.0003 	-6.19196e-06 	-5.14225e-07 30.0003 	-6.19196e-06 	-5.14225e-07 30.0003 	-6.19196e-06 	-5.14225e-07 30.0003 	-6.19196e-06 	-5.14225e-07 30.0001 	-2.94669e-06 	-7.75565e-07 30.0003 	-6.21291e-06 	-5.48845e-07 30.0003 	-6.21291e-06 	-5.48845e-07 30.0003 	-6.21291e-06 	-5.48845e-07 30.0003 	-6.21291e-06 	-5.48845e-07 30.0001 	-1.8405e-07 	-1.02952e-06 30.0003 	-6.23302e-06 	-5.8206e-07 30.0003 	-6.23301e-06 	-5.8206e-07 30.0003 	-6.23301e-06 	-5.82059e-07 30.0003 	-6.23301e-06 	-5.82059e-07 30.0001 	-3.01968e-06 	-8.57454e-07 30.0003 	-6.25226e-06 	-6.13905e-07 30.0003 	-6.25226e-06 	-6.13905e-07 30.0003 	-6.25226e-06 	-6.13905e-07 30.0003 	-6.25226e-06 	-6.13905e-07 30.0001 	-3.05477e-06 	-8.9546e-07 30.0003 	-6.27074e-06 	-6.44431e-07 30.0003 	-6.27074e-06 	-6.44431e-07 30.0003 	-6.27074e-06 	-6.44431e-07 30.0003 	-6.27074e-06 	-6.44431e-07 30.0001 	-1.85457e-07 	-1.14083e-06 30.0003 	-6.28854e-06 	-6.73634e-07 30.0003 	-6.28854e-06 	-6.73634e-07 30.0003 	-6.28854e-06 	-6.73634e-07 30.0003 	-6.28854e-06 	-6.73634e-07 30.0001 	-1.85915e-07 	-1.17458e-06 30.0003 	-6.30554e-06 	-7.01453e-07 30.0003 	-6.30554e-06 	-7.01453e-07 30.0003 	-6.30554e-06 	-7.01452e-07 30.0003 	-6.30554e-06 	-7.01452e-07 30.0001 	-1.86357e-07 	-1.20667e-06 30.0003 	-6.32161e-06 	-7.2789e-07 30.0003 	-6.32161e-06 	-7.2789e-07 30.0003 	-6.32161e-06 	-7.27889e-07 30.0003 	-6.3216e-06 	-7.27889e-07 30.0001 	-3.18621e-06 	-1.03098e-06 30.0003 	-6.33686e-06 	-7.52999e-07 30.0003 	-6.33686e-06 	-7.52999e-07 30.0003 	-6.33685e-06 	-7.52998e-07 30.0003 	-6.33685e-06 	-7.52998e-07 30.0001 	-1.8721e-07 	-1.26595e-06 30.0003 	-6.35138e-06 	-7.76968e-07 30.0003 	-6.35138e-06 	-7.76967e-07 30.0003 	-6.35138e-06 	-7.76967e-07 30.0003 	-6.35137e-06 	-7.76967e-07 30.0001 	-1.87628e-07 	-1.2933e-06 30.0003 	-6.36517e-06 	-7.9984e-07 30.0003 	-6.36516e-06 	-7.9984e-07 30.0003 	-6.36516e-06 	-7.9984e-07 30.0003 	-6.36516e-06 	-7.9984e-07 30.0001 	-3.2756e-06 	-1.11603e-06 30.0003 	-6.37822e-06 	-8.21574e-07 30.0003 	-6.37822e-06 	-8.21573e-07 30.0003 	-6.37822e-06 	-8.21573e-07 30.0003 	-6.37822e-06 	-8.21573e-07 30.0001 	-3.30371e-06 	-1.14151e-06 30.0003 	-6.39056e-06 	-8.42008e-07 30.0003 	-6.39056e-06 	-8.42008e-07 30.0003 	-6.39056e-06 	-8.42008e-07 30.0003 	-6.39056e-06 	-8.42007e-07 30.0001 	-1.88812e-07 	-1.36685e-06 30.0003 	-6.40218e-06 	-8.61404e-07 30.0003 	-6.40218e-06 	-8.61404e-07 30.0003 	-6.40218e-06 	-8.61404e-07 30.0003 	-6.40218e-06 	-8.61404e-07 30.0001 	-1.89193e-07 	-1.38873e-06 30.0003 	-6.4131e-06 	-8.79844e-07 30.0003 	-6.4131e-06 	-8.79844e-07 30.0003 	-6.4131e-06 	-8.79844e-07 30.0003 	-6.41309e-06 	-8.79843e-07 30.0001 	-1.89566e-07 	-1.40938e-06 30.0003 	-6.42333e-06 	-8.97336e-07 30.0003 	-6.42333e-06 	-8.97335e-07 30.0003 	-6.42333e-06 	-8.97335e-07 30.0003 	-6.42332e-06 	-8.97335e-07 30.0001 	-3.40804e-06 	-1.23051e-06 30.0003 	-6.43289e-06 	-9.13921e-07 30.0003 	-6.43289e-06 	-9.13921e-07 30.0003 	-6.43288e-06 	-9.13921e-07 30.0003 	-6.43288e-06 	-9.13921e-07 30.0001 	-3.43217e-06 	-1.24983e-06 30.0003 	-6.44185e-06 	-9.29607e-07 30.0003 	-6.44184e-06 	-9.29607e-07 30.0003 	-6.44184e-06 	-9.29606e-07 30.0003 	-6.44184e-06 	-9.29606e-07 30.0001 	-1.90678e-07 	-1.46455e-06 30.0003 	-6.45016e-06 	-9.44459e-07 30.0003 	-6.45015e-06 	-9.44459e-07 30.0003 	-6.45015e-06 	-9.44458e-07 30.0003 	-6.45015e-06 	-9.44458e-07 30.0001 	-3.47829e-06 	-1.28533e-06 30.0003 	-6.45783e-06 	-9.58469e-07 30.0003 	-6.45783e-06 	-9.58468e-07 30.0003 	-6.45782e-06 	-9.58468e-07 30.0003 	-6.45782e-06 	-9.58468e-07 30.0001 	-3.50035e-06 	-1.30159e-06 30.0003 	-6.46492e-06 	-9.7176e-07 30.0003 	-6.46491e-06 	-9.71759e-07 30.0003 	-6.46491e-06 	-9.71759e-07 30.0003 	-6.46491e-06 	-9.71759e-07 30.0001 	-1.91753e-07 	-