# vtk DataFile Version 2.0
track0
ASCII
DATASET POLYDATA
POINTS 15199 float
-1.001 -0.05 0.0011
-1.00088 -0.05 0.0011
-1.00076 -0.05 0.00109999
-1.00064 -0.05 0.00109999
-1.00052 -0.05 0.00109999
-1.0004 -0.05 0.00109998
-0.975398 -0.05 0.00109925
-0.9504 -0.0499999 0.00109824
-0.925402 -0.0499999 0.00109723
-0.900404 -0.0499998 0.00109622
-0.875406 -0.0499998 0.00109522
-0.850407 -0.0499998 0.0010941
-0.825407 -0.0499997 0.00109261
-0.800408 -0.0499995 0.00109113
-0.775408 -0.0499994 0.00108966
-0.750409 -0.0499992 0.00108818
-0.737914 -0.0499991 0.00108725
-0.72542 -0.0499989 0.00108572
-0.712925 -0.0499988 0.00108419
-0.700431 -0.0499986 0.00108266
-0.687936 -0.0499984 0.00108114
-0.675431 -0.0499985 0.00108007
-0.662926 -0.0499982 0.00107838
-0.65042 -0.049998 0.00107669
-0.637915 -0.0499978 0.00107501
-0.62541 -0.0499976 0.00107333
-0.612898 -0.0499974 0.00107202
-0.600387 -0.0499972 0.0010701
-0.587876 -0.0499969 0.00106818
-0.575365 -0.0499966 0.00106626
-0.562854 -0.0499964 0.00106434
-0.550338 -0.0499964 0.00106278
-0.537822 -0.0499961 0.00106062
-0.525307 -0.0499957 0.00105846
-0.512791 -0.0499953 0.00105631
-0.500275 -0.049995 0.00105416
-0.487751 -0.0499946 0.00105238
-0.475226 -0.0499941 0.00105007
-0.462701 -0.0499936 0.00104776
-0.450177 -0.0499932 0.00104546
-0.437652 -0.0499927 0.00104317
-0.42513 -0.0499928 0.00104123
-0.412607 -0.0499921 0.00103879
-0.400084 -0.0499915 0.00103636
-0.387562 -0.0499909 0.00103393
-0.375039 -0.0499902 0.0010315
-0.362534 -0.0499894 0.0010297
-0.350028 -0.0499886 0.00102807
-0.337522 -0.0499878 0.00102643
-0.325017 -0.049987 0.0010248
-0.312511 -0.0499862 0.00102317
-0.306259 -0.0499857 0.00102242
-0.300007 -0.0499848 0.00102111
-0.293755 -0.0499839 0.00101981
-0.287503 -0.0499829 0.00101851
-0.281251 -0.049982 0.0010172
-0.275 -0.0499808 0.00101656
-0.26875 -0.0499797 0.00101557
-0.2625 -0.0499786 0.00101458
-0.25625 -0.0499774 0.00101359
-0.25 -0.0499763 0.00101261
-0.24375 -0.0499757 0.0010122
-0.2375 -0.0499744 0.00101148
-0.23125 -0.049973 0.00101076
-0.225 -0.0499716 0.00101005
-0.21875 -0.0499702 0.00100933
-0.2125 -0.0499687 0.00100918
-0.20625 -0.049967 0.00100881
-0.2 -0.0499653 0.00100843
-0.19375 -0.0499637 0.00100806
-0.1875 -0.049962 0.00100769
-0.18125 -0.0499613 0.00100791
-0.175 -0.0499593 0.00100799
-0.16875 -0.0499573 0.00100808
-0.1625 -0.0499554 0.00100816
-0.15625 -0.0499534 0.00100824
-0.153125 -0.0499523 0.00100842
-0.15 -0.04995 0.00100869
-0.146875 -0.0499478 0.00100896
-0.14375 -0.0499455 0.00100923
-0.140625 -0.0499433 0.0010095
-0.1375 -0.0499413 0.00100978
-0.134374 -0.0499388 0.00101026
-0.131249 -0.0499362 0.00101073
-0.128124 -0.0499337 0.00101121
-0.124999 -0.0499311 0.00101169
-0.121874 -0.0499297 0.00101209
-0.118749 -0.0499268 0.00101273
-0.115624 -0.049924 0.00101338
-0.112499 -0.0499211 0.00101403
-0.109374 -0.0499183 0.00101467
-0.106249 -0.0499161 0.00101521
-0.103124 -0.049913 0.00101599
-0.0999989 -0.0499099 0.00101676
-0.0968739 -0.0499068 0.00101754
-0.0937488 -0.0499037 0.00101831
-0.0906239 -0.0499021 0.00101894
-0.0874989 -0.0498988 0.00101983
-0.0843739 -0.0498955 0.00102072
-0.0812489 -0.0498921 0.00102162
-0.0781239 -0.0498888 0.00102251
-0.0749989 -0.0498864 0.00102327
-0.0718739 -0.0498828 0.00102427
-0.0687489 -0.0498793 0.00102527
-0.0656238 -0.0498757 0.00102627
-0.0624988 -0.0498722 0.00102727
-0.0593738 -0.0498704 0.00102811
-0.0562488 -0.0498666 0.00102922
-0.0531238 -0.0498628 0.00103033
-0.0499988 -0.0498591 0.00103144
-0.0468738 -0.0498553 0.00103255
-0.0437488 -0.0498526 0.00103352
-0.0406238 -0.0498486 0.00103473
-0.0374988 -0.0498446 0.00103594
-0.0343738 -0.0498406 0.00103716
-0.0312488 -0.0498366 0.00103838
-0.0281239 -0.0498346 0.00103942
-0.0249989 -0.0498304 0.00104074
-0.0218739 -0.0498262 0.00104205
-0.018749 -0.0498219 0.00104337
-0.015624 -0.0498177 0.00104469
-0.012499 -0.0498147 0.00104585
-0.00937393 -0.0498103 0.00104726
-0.00624889 -0.0498058 0.00104868
-0.00312386 -0.0498014 0.0010501
1.18298e-06 -0.0497969 0.00105152
0.00312621 -0.0497947 0.00105275
0.00625124 -0.04979 0.00105426
0.00937627 -0.0497854 0.00105577
0.0125013 -0.0497807 0.00105728
0.0156263 -0.049776 0.0010588
0.0187516 -0.0497728 0.00106014
0.0218768 -0.0497679 0.00106174
0.025002 -0.049763 0.00106334
0.0281273 -0.049758 0.00106495
0.0312525 -0.0497531 0.00106655
0.0343793 -0.0497508 0.00106798
0.037506 -0.0497456 0.00106967
0.0406327 -0.0497405 0.00107136
0.0437595 -0.0497353 0.00107305
0.0468862 -0.0497302 0.00107475
0.050011 -0.0497267 0.00107626
0.0531358 -0.0497214 0.00107804
0.0562606 -0.049716 0.00107981
0.0593853 -0.0497107 0.00108159
0.0625101 -0.0497053 0.00108337
0.065635 -0.0497028 0.00108496
0.0687598 -0.0496972 0.00108682
0.0718846 -0.0496916 0.00108867
0.0750094 -0.049686 0.00109053
0.0781342 -0.0496804 0.0010924
0.0812601 -0.0496767 0.00109407
0.084386 -0.0496709 0.001096
0.0875119 -0.0496651 0.00109794
0.0906377 -0.0496593 0.00109988
0.0937636 -0.0496535 0.00110182
0.0968915 -0.0496508 0.00110356
0.100019 -0.0496447 0.00110557
0.103147 -0.0496387 0.00110758
0.106275 -0.0496327 0.0011096
0.109403 -0.0496266 0.00111162
0.112529 -0.0496227 0.00111343
0.115655 -0.0496165 0.00111551
0.118781 -0.0496102 0.00111759
0.121907 -0.049604 0.00111967
0.125032 -0.0495977 0.00112176
0.128157 -0.0495948 0.00112364
0.131283 -0.0495884 0.00112578
0.134408 -0.049582 0.00112792
0.137533 -0.0495755 0.00113007
0.140658 -0.0495691 0.00113222
0.143784 -0.0495649 0.00113416
0.146909 -0.0495582 0.00113636
0.150035 -0.0495516 0.00113857
0.153161 -0.0495449 0.00114078
0.156287 -0.0495382 0.00114299
0.159413 -0.0495352 0.00114499
0.16254 -0.0495284 0.00114724
0.165667 -0.0495215 0.00114951
0.168794 -0.0495146 0.00115178
0.171921 -0.0495077 0.00115405
0.175047 -0.0495033 0.00115609
0.178172 -0.0494963 0.0011584
0.181298 -0.0494892 0.00116071
0.184424 -0.0494822 0.00116303
0.18755 -0.0494751 0.00116536
0.190674 -0.0494719 0.00116745
0.193799 -0.0494646 0.0011698
0.196923 -0.0494574 0.00117216
0.200048 -0.0494501 0.00117453
0.203172 -0.0494429 0.0011769
0.206296 -0.0494382 0.00117902
0.209421 -0.0494308 0.00118142
0.212545 -0.0494234 0.00118382
0.215669 -0.049416 0.00118623
0.218794 -0.0494085 0.00118864
0.221919 -0.0494052 0.00119081
0.225045 -0.0493976 0.00119324
0.22817 -0.04939 0.00119568
0.231296 -0.0493823 0.00119813
0.234421 -0.0493747 0.00120057
0.237548 -0.0493699 0.00120277
0.240674 -0.0493621 0.00120524
0.2438 -0.0493543 0.00120771
0.246927 -0.0493465 0.00121019
0.250053 -0.0493387 0.00121268
0.25318 -0.0493352 0.0012149
0.256307 -0.0493273 0.00121741
0.259434 -0.0493193 0.00121991
0.262561 -0.0493114 0.00122242
0.265688 -0.0493034 0.00122494
0.268813 -0.0492984 0.00122718
0.271938 -0.0492903 0.00122971
0.275062 -0.0492822 0.00123223
0.278187 -0.0492741 0.00123477
0.281312 -0.049266 0.00123731
0.284435 -0.0492623 0.00123958
0.287558 -0.0492541 0.00124212
0.290681 -0.0492459 0.00124467
0.293804 -0.0492376 0.00124722
0.296927 -0.0492294 0.00124978
0.30005 -0.0492242 0.00125205
0.303174 -0.0492158 0.00125461
0.306297 -0.0492075 0.00125717
0.309421 -0.0491991 0.00125974
0.312544 -0.0491907 0.00126231
0.315668 -0.049187 0.00126461
0.318793 -0.0491785 0.00126718
0.321917 -0.04917 0.00126975
0.325041 -0.0491615 0.00127233
0.328166 -0.049153 0.00127491
0.331291 -0.0491476 0.00127721
0.334416 -0.049139 0.00127978
0.337541 -0.0491304 0.00128237
0.340666 -0.0491218 0.00128495
0.343791 -0.0491131 0.00128755
0.346916 -0.0491093 0.00128986
0.350042 -0.0491006 0.00129244
0.353168 -0.0490918 0.00129503
0.356294 -0.0490831 0.00129762
0.35942 -0.0490743 0.00130022
0.362549 -0.0490688 0.00130253
0.365679 -0.04906 0.00130512
0.368808 -0.0490512 0.00130771
0.371938 -0.0490423 0.00131031
0.375068 -0.0490334 0.00131291
0.378205 -0.0490295 0.00131524
0.381343 -0.0490205 0.00131783
0.384481 -0.0490116 0.00132043
0.387619 -0.0490026 0.00132304
0.390756 -0.0489936 0.00132565
0.393889 -0.048988 0.00132795
0.397022 -0.048979 0.00133053
0.400155 -0.04897 0.00133313
0.403288 -0.0489609 0.00133572
0.406421 -0.0489518 0.00133832
0.409551 -0.0489478 0.00134063
0.412682 -0.0489388 0.00134321
0.415813 -0.0489296 0.0013458
0.418943 -0.0489205 0.00134839
0.422074 -0.0489114 0.00135098
0.425204 -0.0489057 0.00135326
0.428334 -0.0488965 0.00135583
0.431464 -0.0488873 0.00135841
0.434594 -0.0488781 0.00136099
0.437724 -0.0488689 0.00136358
0.440854 -0.0488649 0.00136587
0.443984 -0.0488556 0.00136843
0.447114 -0.0488464 0.001371
0.450244 -0.0488371 0.00137357
0.453374 -0.0488278 0.00137615
0.456504 -0.048822 0.00137841
0.459634 -0.0488127 0.00138096
0.462763 -0.0488034 0.00138352
0.465893 -0.0487941 0.00138608
0.469023 -0.0487847 0.00138864
0.472152 -0.0487806 0.00139091
0.475282 -0.0487713 0.00139344
0.478411 -0.0487619 0.00139598
0.481541 -0.0487525 0.00139853
0.48467 -0.0487431 0.00140108
0.4878 -0.0487373 0.00140331
0.490929 -0.0487279 0.00140583
0.494058 -0.0487184 0.00140835
0.497187 -0.048709 0.00141088
0.500317 -0.0486995 0.00141342
0.503446 -0.0486954 0.00141565
0.506575 -0.048686 0.00141815
0.509704 -0.0486765 0.00142066
0.512833 -0.048667 0.00142317
0.515962 -0.0486575 0.00142569
0.519091 -0.0486516 0.00142788
0.52222 -0.0486421 0.00143036
0.525348 -0.0486326 0.00143285
0.528477 -0.0486231 0.00143534
0.531606 -0.0486136 0.00143784
0.534734 -0.0486094 0.00144003
0.537863 -0.0485999 0.00144249
0.540992 -0.0485904 0.00144496
0.54412 -0.0485808 0.00144743
0.547249 -0.0485713 0.0014499
0.550377 -0.0485653 0.00145205
0.553506 -0.0485558 0.00145449
0.556634 -0.0485463 0.00145694
0.559762 -0.0485367 0.00145938
0.562891 -0.0485271 0.00146184
0.566019 -0.0485229 0.00146399
0.569147 -0.0485134 0.0014664
0.572275 -0.0485038 0.00146882
0.575403 -0.0484942 0.00147124
0.578532 -0.0484846 0.00147367
0.58166 -0.0484787 0.00147578
0.584788 -0.0484691 0.00147817
0.587915 -0.0484596 0.00148056
0.591043 -0.04845 0.00148296
0.594171 -0.0484404 0.00148536
0.597299 -0.0484362 0.00148747
0.600427 -0.0484266 0.00148985
0.603555 -0.048417 0.00149222
[...]
POINT_DATA 15199
 FIELD attributes 1
U 3 15199 float
25.0026 	1.58664e-05 	-0.000700593 25.0025 	1.55639e-05 	-0.000707515 25.0023 	1.52615e-05 	-0.000714437 25.0022 	1.4959e-05 	-0.000721359 25.002 	1.46566e-05 	-0.000728281 25.0019 	1.43542e-05 	-0.000735203 25.0046 	4.57097e-05 	-0.00100895 25.0046 	4.56678e-05 	-0.00100802 25.0046 	4.56259e-05 	-0.0010071 25.0046 	4.5584e-05 	-0.00100617 25.0028 	-7.56205e-06 	-0.00112213 25.0075 	0.000147746 	-0.00148262 25.0074 	0.000147546 	-0.00148061 25.0074 	0.000147346 	-0.00147861 25.0074 	0.000147147 	-0.00147661 25.0093 	0.000205419 	-0.00186118 25.0184 	0.00034664 	-0.00306465 25.0183 	0.000346152 	-0.00306033 25.0183 	0.000345664 	-0.00305602 25.0183 	0.000345178 	-0.00305172 25.0109 	-4.98691e-05 	-0.00214911 25.0235 	0.000417871 	-0.00337753 25.0234 	0.000417218 	-0.00337225 25.0234 	0.000416566 	-0.00336698 25.0233 	0.000415915 	-0.00336172 25.0135 	0.000385662 	-0.0026106 25.0295 	0.000535939 	-0.00385179 25.0294 	0.000534976 	-0.00384487 25.0293 	0.000534015 	-0.00383797 25.0293 	0.000533056 	-0.00383107 25.0167 	-0.000101592 	-0.0031239 25.0366 	0.00071316 	-0.00432239 25.0366 	0.00071171 	-0.0043136 25.0365 	0.000710263 	-0.00430483 25.0364 	0.000708819 	-0.00429608 25.0204 	0.000805495 	-0.00356429 25.0449 	0.000953273 	-0.00462182 25.0448 	0.000951179 	-0.00461167 25.0447 	0.00094909 	-0.00460155 25.0446 	0.000947006 	-0.00459144 25.0251 	-0.000200121 	-0.00386325 25.0552 	0.00128283 	-0.00488465 25.055 	0.00127983 	-0.0048732 25.0549 	0.00127683 	-0.00486177 25.0548 	0.00127383 	-0.00485037 25.0301 	0.00155789 	-0.00359763 25.0652 	0.00162082 	-0.00328059 25.0651 	0.00161824 	-0.00327537 25.065 	0.00161567 	-0.00327017 25.0649 	0.0016131 	-0.00326497 25.071 	0.00191941 	-0.00301682 25.1403 	0.00375502 	-0.00525253 25.1401 	0.00375022 	-0.00524582 25.1399 	0.00374543 	-0.00523912 25.1397 	0.00374065 	-0.00523243 25.0742 	0.00485047 	-0.00257735 25.1503 	0.0045226 	-0.00398448 25.1502 	0.00451819 	-0.00398059 25.1501 	0.00451379 	-0.00397672 25.1499 	0.00450939 	-0.00397284 25.0795 	0.00235425 	-0.00163873 25.1586 	0.00553145 	-0.00289028 25.1585 	0.00552752 	-0.00288823 25.1584 	0.0055236 	-0.00288618 25.1583 	0.00551968 	-0.00288413 25.0829 	0.00631551 	-0.000593664 25.1658 	0.00669031 	-0.00150691 25.1657 	0.00668783 	-0.00150636 25.1657 	0.00668535 	-0.0015058 25.1656 	0.00668287 	-0.00150524 25.087 	0.00300333 	0.000903786 25.1706 	0.00792878 	0.000332994 25.1706 	0.00792943 	0.000333022 25.1706 	0.00793008 	0.000333049 25.1706 	0.00793073 	0.000333076 25.1734 	0.00924088 	0.00140647 25.3456 	0.0181575 	0.00220012 25.3457 	0.0181624 	0.00220071 25.3458 	0.0181673 	0.00220131 25.3459 	0.0181722 	0.0022019 25.1747 	0.0157098 	0.00224309 25.3509 	0.0207686 	0.00386383 25.3511 	0.0207784 	0.00386566 25.3513 	0.0207882 	0.00386748 25.3514 	0.020798 	0.0038693 25.1778 	0.0112381 	0.00322247 25.3545 	0.0231375 	0.00524391 25.3548 	0.0231522 	0.00524726 25.355 	0.023167 	0.00525061 25.3552 	0.0231818 	0.00525396 25.1784 	0.017649 	0.00433094 25.3571 	0.0250878 	0.0062806 25.3573 	0.0251069 	0.00628539 25.3576 	0.0251261 	0.00629018 25.3579 	0.0251452 	0.00629498 25.1804 	0.012903 	0.00507262 25.3581 	0.0269569 	0.00723118 25.3584 	0.0269805 	0.0072375 25.3587 	0.027004 	0.00724383 25.3591 	0.0270277 	0.00725017 25.1798 	0.0195386 	0.00608654 25.3582 	0.0287629 	0.00811661 25.3586 	0.0287911 	0.00812455 25.3589 	0.0288192 	0.00813249 25.3593 	0.0288474 	0.00814044 25.1808 	0.0143726 	0.00676634 25.358 	0.0306103 	0.00899736 25.3583 	0.0306433 	0.00900706 25.3587 	0.0306763 	0.00901678 25.3591 	0.0307094 	0.0090265 25.1799 	0.0215334 	0.00773959 25.3568 	0.0324574 	0.00985053 25.3572 	0.0324956 	0.00986211 25.3577 	0.0325337 	0.00987369 25.3581 	0.0325719 	0.00988529 25.18 	0.0158606 	0.00840511 25.3548 	0.0343064 	0.0106709 25.3553 	0.0343498 	0.0106844 25.3557 	0.0343932 	0.0106979 25.3562 	0.0344367 	0.0107114 25.1782 	0.0235751 	0.00932138 25.352 	0.0361639 	0.0114664 25.3525 	0.0362128 	0.0114819 25.3529 	0.0362617 	0.0114974 25.3534 	0.0363107 	0.0115129 25.1775 	0.0173487 	0.00997066 25.3483 	0.0379729 	0.0122347 25.3488 	0.0380273 	0.0122522 25.3493 	0.0380818 	0.0122698 25.3498 	0.0381363 	0.0122874 25.1748 	0.0256085 	0.010815 25.3437 	0.0397914 	0.0129727 25.3442 	0.0398514 	0.0129923 25.3448 	0.0399116 	0.0130119 25.3453 	0.0399718 	0.0130315 25.1733 	0.018825 	0.0114445 25.3386 	0.0416114 	0.0136875 25.3391 	0.0416772 	0.0137092 25.3397 	0.0417431 	0.0137308 25.3402 	0.0418091 	0.0137526 25.17 	0.0276607 	0.0122089 25.3328 	0.0434038 	0.014374 25.3334 	0.0434753 	0.0143976 25.3339 	0.043547 	0.0144214 25.3345 	0.0436187 	0.0144451 25.1676 	0.0202629 	0.0127906 25.3263 	0.0451945 	0.0150284 25.3269 	0.0452717 	0.015054 25.3274 	0.0453491 	0.0150798 25.328 	0.0454266 	0.0151055 25.1639 	0.0297033 	0.0134785 25.3192 	0.0469711 	0.0156534 25.3198 	0.0470541 	0.015681 25.3204 	0.0471372 	0.0157087 25.3209 	0.0472205 	0.0157365 25.1607 	0.0216971 	0.0140109 25.3117 	0.0486991 	0.0162516 25.3123 	0.0487877 	0.0162812 25.3129 	0.0488765 	0.0163108 25.3134 	0.0489655 	0.0163405 25.1566 	0.031692 	0.0146119 25.3035 	0.0503912 	0.0168089 25.3041 	0.0504851 	0.0168403 25.3047 	0.0505793 	0.0168717 25.3052 	0.0506736 	0.0169032 25.1526 	0.0230758 	0.0150906 25.2948 	0.0520551 	0.0173247 25.2953 	0.0521543 	0.0173577 25.2959 	0.0522536 	0.0173908 25.2965 	0.0523531 	0.0174239 25.148 	0.0335973 	0.0155889 25.2857 	0.053699 	0.0178089 25.2862 	0.0538032 	0.0178434 25.2868 	0.0539076 	0.0178781 25.2873 	0.0540123 	0.0179128 25.1436 	0.0244232 	0.0160215 25.2764 	0.0553474 	0.0182611 25.2769 	0.0554566 	0.0182971 25.2774 	0.055566 	0.0183332 25.278 	0.0556756 	0.0183694 25.1388 	0.0354968 	0.0164224 25.2667 	0.0569399 	0.0186751 25.2672 	0.0570537 	0.0187124 25.2677 	0.0571677 	0.0187498 25.2683 	0.0572819 	0.0187873 25.1339 	0.0257345 	0.0168034 25.2565 	0.0584438 	0.0190427 25.257 	0.0585617 	0.0190812 25.2575 	0.0586799 	0.0191197 25.258 	0.0587983 	0.0191582 25.1287 	0.0372347 	0.0170944 25.2459 	0.0598812 	0.0193648 25.2464 	0.0600029 	0.0194042 25.2469 	0.0601249 	0.0194436 25.2474 	0.0602471 	0.0194831 25.1234 	0.0269105 	0.0174174 25.2353 	0.0612788 	0.019659 25.2358 	0.0614041 	0.0196992 25.2363 	0.0615297 	0.0197395 25.2368 	0.0616555 	0.0197798 25.118 	0.0388489 	0.017618 25.2247 	0.0626361 	0.0199244 25.2251 	0.0627647 	0.0199653 25.2256 	0.0628936 	0.0200063 25.2261 	0.0630227 	0.0200474 25.1128 	0.0280424 	0.0178994 25.2141 	0.0639493 	0.0201636 25.2145 	0.0640809 	0.0202051 25.2149 	0.0642128 	0.0202467 25.2154 	0.064345 	0.0202884 25.1074 	0.0403981 	0.0180219 25.2032 	0.0651706 	0.0203611 25.2036 	0.0653047 	0.020403 25.204 	0.065439 	0.020445 25.2044 	0.0655736 	0.0204871 25.1018 	0.0290762 	0.0182618 25.192 	0.0662772 	0.0205037 25.1923 	0.0664131 	0.0205457 25.1927 	0.0665493 	0.0205879 25.1931 	0.0666858 	0.0206301 25.0961 	0.0416863 	0.0182745 25.1807 	0.0673061 	0.0206094 25.1811 	0.0674435 	0.0206515 25.1814 	0.0675812 	0.0206936 25.1818 	0.0677192 	0.0207359 25.0905 	0.029916 	0.0184594 25.1696 	0.0682888 	0.0206894 25.1699 	0.0684275 	0.0207314 25.1703 	0.0685665 	0.0207735 25.1706 	0.0687057 	0.0208157 25.085 	0.0428329 	0.0184049 25.1587 	0.069231 	0.0207479 25.159 	0.0693707 	0.0207897 25.1594 	0.0695106 	0.0208317 25.1597 	0.0696509 	0.0208737 25.0795 	0.0307067 	0.01856 25.148 	0.0701236 	0.0207856 25.1483 	0.0702641 	0.0208272 25.1486 	0.0704048 	0.0208689 25.1489 	0.0705458 	0.0209107 25.0742 	0.0438866 	0.0184401 25.1375 	0.0709506 	0.020799 25.1378 	0.0710916 	0.0208404 25.138 	0.0712329 	0.0208818 25.1383 	0.0713745 	0.0209233 25.0688 	0.0314175 	0.0185721 25.127 	0.0716356 	0.0207823 25.1272 	0.0717769 	0.0208234 25.1275 	0.0719186 	0.0208644 25.1277 	0.0720605 	0.0209056 25.0636 	0.0447051 	0.0183811 25.1167 	0.0722678 	0.0207376 25.1169 	0.0724086 	0.020778 25.1171 	0.0725496 	0.0208185 25.1174 	0.0726909 	0.020859 25.0584 	0.0319556 	0.0184774 25.1067 	0.0729039 	0.0206894 25.1069 	0.0730442 	0.0207292 25.1072 	0.0731848 	0.0207691 25.1074 	0.0733256 	0.020809 25.0536 	0.0454747 	0.0182549 25.0971 	0.0735014 	0.0206248 25.0973 	0.0736411 	0.020664 25.0975 	0.0737811 	0.0207033 25.0976 	0.0739213 	0.0207427 25.0486 	0.0324736 	0.0183294 25.0877 	0.0740412 	0.0205421 25.0879 	0.0741801 	0.0205807 25.088 	0.0743193 	0.0206193 25.0882 	0.0744588 	0.020658 25.0441 	0.0461515 	0.0180688 25.0785 	0.0745203 	0.0204402 25.0787 	0.0746582 	0.020478 25.0788 	0.0747963 	0.0205159 25.079 	0.0749347 	0.0205539 25.0393 	0.0328939 	0.0181168 25.0697 	0.0749452 	0.0203209 25.0698 	0.0750819 	0.020358 25.0699 	0.0752188 	0.0203951 25.07 	0.075356 	0.0204323 25.0351 	0.046696 	0.0178242 25.0611 	0.0753182 	0.0201857 25.0612 	0.0754534 	0.020222 25.0613 	0.075589 	0.0202583 25.0614 	0.0757247 	0.0202947 25.0306 	0.0332213 	0.0178487 25.0528 	0.075635 	0.0200378 25.0529 	0.0757687 	0.0200732 25.053 	0.0759027 	0.0201087 25.0531 	0.0760369 	0.0201443 25.0267 	0.0471179 	0.017533 25.0448 	0.0758966 	0.0198767 25.0449 	0.0760285 	0.0199112 25.045 	0.0761608 	0.0199459 25.045 	0.0762932 	0.0199805 25.0224 	0.0334586 	0.0175375 25.0371 	0.0761078 	0.0197033 25.0372 	0.076238 	0.019737 25.0373 	0.0763683 	0.0197707 25.0373 	0.0764989 	0.0198045 25.0189 	0.0474116 	0.0172063 25.0298 	0.0762662 	0.0195163 25.0299 	0.0763944 	0.0195491 25.0299 	0.0765227 	0.0195819 25.03 	0.0766512 	0.0196148 25.0149 	0.0336087 	0.0171928 25.0228 	0.0763731 	0.0193219 25.0228 	0.0764991 	0.0193538 25.0229 	0.0766253 	0.0193857 25.0229 	0.0767517 	0.0194177 25.0117 	0.0475848 	0.0168564 25.0161 	0.0764065 	0.0191181 25.0162 	0.0765302 	0.019149 25.0162 	0.0766542 	0.0191801 25.0162 	0.0767783 	0.0192111 25.008 	0.0336593 	0.0168622 25.0101 	0.0764041 	0.0189729 25.0101 	0.076526 	0.0190031 25.0101 	0.0766481 	0.0190334 25.0101 	0.0767703 	0.0190638 25.0051 	0.0476475 	0.0165664 25.0036 	0.0763867 	0.0188632 25.0036 	0.0765069 	0.0188929 25.0036 	0.0766273 	0.0189227 25.0036 	0.0767479 	0.0189525 25.0016 	0.0336715 	0.0166067 24.9977 	0.0763777 	0.018767 24.9977 	0.0764964 	0.0187961 24.9977 	0.0766153 	0.0188254 24.9977 	0.0767344 	0.0188546 24.9991 	0.0476429 	0.0163151 24.9917 	0.0762943 	0.0186228 24.9917 	0.0764111 	0.0186513 24.9917 	0.0765281 	0.0186799 24.9916 	0.0766452 	0.0187085 24.9958 	0.0336369 	0.0163324 24.9865 	0.0762049 	0.0185216 24.9864 	0.0763201 	0.0185496 24.9864 	0.0764355 	0.0185776 24.9864 	0.076551 	0.0186057 24.9935 	0.0475736 	0.0160635 24.9805 	0.0761025 	0.0184525 24.9805 	0.0762163 	0.0184801 24.9805 	0.0763303 	0.0185077 24.9805 	0.0764444 	0.0185354 24.9904 	0.0335691 	0.0160724 24.9753 	0.0760051 	0.0183021 24.9753 	0.076117 	0.0183291 24.9752 	0.0762291 	0.0183561 24.9752 	0.0763413 	0.0183831 24.9884 	0.0474737 	0.0157599 24.9705 	0.0758559 	0.0180767 24.9705 	0.0759655 	0.0181028 24.9704 	0.0760752 	0.018129 24.9704 	0.0761851 	0.0181552 24.9856 	0.0334604 	0.0156868 24.9659 	0.0756649 	0.0178416 24.9659 	0.0757721 	0.0178669 24.9658 	0.0758794 	0.0178922 24.9658 	0.0759579 	0.0179161 24.9839 	0.047193 	0.0153712 24.9619 	0.0749651 	0.0175884 24.962 	0.0748026 	0.0175977 24.962 	0.0746407 	0.017607 24.9621 	0.0744792 	0.0176164 24.9813 	0.0332981 	0.0153031 24.9586 	0.0735563 	0.0173233 24.9587 	0.0733993 	0.017334 24.9588 	0.0732429 	0.0173448 24.9589 	0.073087 	0.0173555 24.9799 	0.0461736 	0.0150256 24.9556 	0.0721032 	0.0170498 24.9557 	0.0719482 	0.0170586 24.9558 	0.0717936 	0.0170673 24.9558 	0.0716396 	0.0170762 24.9775 	0.0331061 	0.014962 24.9531 	0.0707579 	0.0168287 24.9532 	0.0706084 	0.0168387 24.9533 	0.0704594 	0.0168488 24.9534 	0.0703109 	0.0168589 24.9763 	0.0451641 	0.0147147 24.9506 	0.0693392 	0.0165607 24.9507 	0.0691918 	0.0165689 24.9507 	0.0690448 	0.0165772 24.9508 	0.0688982 	0.0165855 24.9742 	0.0328911 	0.0146447 24.9486 	0.0680604 	0.016367 24.9487 	0.0679184 	0.0163764 24.9488 	0.0677768 	0.0163859 24.9489 	0.0676357 	0.0163954 24.9732 	0.0441736 	0.0144257 24.9466 	0.066663 	0.0161033 24.9467 	0.066523 	0.0161111 24.9468 	0.0663834 	0.016119 24.9469 	0.0662442 	0.0161269 24.9714 	0.0326529 	0.0143469 24.9452 	0.0654044 	0.0159276 24.9454 	0.0652272 	0.0159345 24.9455 	0.0650506 	0.0159414 24.9456 	0.0648745 	0.0159484 24.9705 	0.0431131 	0.0141486 24.9438 	0.063862 	0.0156562 24.9439 	0.0636887 	0.0156615 24.944 	0.063516 	0.0156669 24.9442 	0.0633438 	0.0156723 24.9689 	0.0323978 	0.0140626 24.943 	0.0625377 	0.0154965 24.9431 	0.0623718 	0.0155031 24.9432 	0.0622065 	0.0155099 24.9434 	0.0620416 	0.0155166 24.9682 	0.0420343 	0.0138886 24.9419 	0.0610641 	0.0152347 24.942 	0.0609019 	0.01524 24.9421 	0.0607402 	0.0152453 24.9423 	0.060579 	0.0152506 24.9667 	0.0321377 	0.0137966 24.9414 	0.0598334 	0.0151029 24.9415 	0.059675 	0.0151092 24.9417 	0.0595172 	0.0151155 24.9418 	0.0593597 	0.0151219 24.9662 	0.0410065 	0.0136426 24.9406 	0.0584118 	0.0148336 24.9408 	0.05826 	0.0148388 24.9409 	0.0581087 	0.014844 24.941 	0.0579578 	0.0148493 24.9649 	0.0318765 	0.0135356 24.9405 	0.0572457 	0.0147302 24.9406 	0.0570914 	0.0147359 24.9408 	0.0569375 	0.0147417 24.9409 	0.056784 	0.0147475 24.9645 	0.0400391 	0.0133889 24.9402 	0.0558393 	0.0143894 24.9404 	0.0556323 	0.0143916 24.9406 	0.0554259 	0.0143939 24.9408 	0.05522 	0.0143962 24.9634 	0.0316514 	0.0132741 24.9407 	0.0543254 	0.0145445 24.9409 	0.0540624 	0.014542 24.9412 	0.0538 	0.0145396 24.9414 	0.0535384 	0.0145371 24.963 	0.0388852 	0.0131105 24.9411 	0.0528041 	0.0130392 24.9416 	0.0523207 	0.0130493 24.9421 	0.0518387 	0.0130593 24.9426 	0.051358 	0.0130694 24.9623 	0.0315081 	0.0129994 24.962 	0.0311094 	0.0127311 24.9619 	0.031166 	0.0127542 24.9618 	0.0312226 	0.0127774 24.9617 	0.0312794 	0.0128006 24.9839 	0.0239686 	0.013351 24.9611 	0.0310488 	0.0123018 24.961 	0.0311027 	0.0123231 24.961 	0.0311567 	0.0123445 24.9609 	0.0312108 	0.012366 24.9831 	0.00990521 	0.0129575 24.9605 	0.0304552 	0.0125082 24.9605 	0.0305085 	0.0125302 24.9604 	0.030562 	0.0125521 24.9603 	0.0306155 	0.0125741 24.9831 	0.0237656 	0.0128159 24.9595 	0.0320599 	0.00977511 24.9595 	0.0321035 	0.00978838 24.9594 	0.0321471 	0.00980167 24.9594 	0.0321907 	0.00981498 24.9825 	0.00982953 	0.0124363 24.9821 	0.00957725 	0.0120743 24.9821 	0.00960907 	0.0121144 24.982 	0.00964099 	0.0121546 24.9819 	0.00967301 	0.012195 24.9929 	-0.00217584 	0.0137035 24.9815 	0.00942204 	0.011814 24.9815 	0.00945214 	0.0118517 24.9814 	0.00948234 	0.0118896 24.9813 	0.00951263 	0.0119276 24.9928 	0.0124592 	0.0133473 24.9812 	0.00931117 	0.0116505 24.9811 	0.00934002 	0.0116866 24.9811 	0.00936897 	0.0117228 24.981 	0.009398 	0.0117591 24.9925 	-0.00212466 	0.0132723 24.9812 	0.00905769 	0.0112236 24.9811 	0.00908431 	0.0112566 24.981 	0.009111 	0.0112897 24.981 	0.00913777 	0.0113229 24.9926 	0.0123822 	0.0129994 24.9815 	0.00955928 	0.0115168 24.9815 	0.00958767 	0.011551 24.9814 	0.00961614 	0.0115853 24.9814 	0.0096447 	0.0116197 24.9926 	-0.00212121 	0.012899 24.9818 	0.00692522 	0.00903406 24.9818 	0.00694112 	0.00905479 24.9817 	0.00695705 	0.00907557 24.9817 	0.00697301 	0.0090964 24.9928 	0.0124406 	0.0127455 24.9929 	0.0123733 	0.0125597 24.9928 	0.0124511 	0.0126386 24.9928 	0.0125293 	0.012718 24.9928 	0.012608 	0.0127979 24.9969 	-0.00117176 	0.0138677 24.9927 	0.0122605 	0.0122251 24.9927 	0.0123331 	0.0122975 24.9926 	0.0124061 	0.0123703 24.9926 	0.0124795 	0.0124435 24.997 	0.0147301 	0.0126922 24.9932 	0.0129913 	0.0126742 24.9932 	0.0130688 	0.0127498 24.9932 	0.0131467 	0.0128258 24.9931 	0.0132251 	0.0129023 24.9972 	-0.00120399 	0.0136581 24.9945 	0.0103258 	0.0105962 24.9945 	0.0103758 	0.0106475 24.9945 	0.010426 	0.010699 24.9944 	0.0104764 	0.0107508 24.9976 	0.015556 	0.0127046 24.9982 	0.0164766 	0.0125941 24.9982 	0.0166604 	0.0127345 24.9981 	0.0168462 	0.0128765 24.9981 	0.0170341 	0.0130202 24.9983 	-0.000858564 	0.015138 24.9977 	0.0176018 	0.0125014 24.9977 	0.0177859 	0.0126322 24.9976 	0.0179719 	0.0127643 24.9976 	0.0181598 	0.0128977 24.9981 	0.0189698 	0.00967033 24.9976 	0.01863 	0.0118022 24.9975 	0.0188051 	0.0119131 24.9975 	0.0189818 	0.012025 24.9975 	0.0191602 	0.012138 24.9981 	-0.000969745 	0.0146808 24.999 	0.0161143 	0.00933145 24.999 	0.0162283 	0.00939749 24.999 	0.0163432 	0.00946399 24.999 	0.0164588 	0.00953096 24.9987 	0.0192743 	0.00933755 24.9994 	0.0195591 	0.00897956 24.9994 	0.0198145 	0.00909684 24.9994 	0.0200733 	0.00921565 24.9994 	0.0203355 	0.00933602 24.995 	-0.000184024 	0.00921027 24.9989 	0.0206183 	0.00863528 24.9989 	0.0208611 	0.00873697 24.9989 	0.0211067 	0.00883985 24.9989 	0.0213553 	0.00894394 24.9975 	0.00768132 	0.00246978 24.9985 	0.0211766 	0.00842164 24.9984 	0.0214079 	0.00851363 24.9984 	0.0216418 	0.00860663 24.9984 	0.0218782 	0.00870065 24.9952 	-0.00026059 	0.00930272 24.9985 	0.0219892 	0.00943502 24.9985 	0.022244 	0.00954431 24.9984 	0.0225016 	0.00965487 24.9984 	0.0227623 	0.00976671 24.9973 	0.00789979 	0.00289261 24.9972 	0.00766317 	0.00312448 24.9971 	0.00771894 	0.00314722 24.9971 	0.00777512 	0.00317013 24.9971 	0.00783171 	0.0031932 24.9986 	-8.39295e-06 	0.00185897 24.9973 	0.00718935 	0.00348649 24.9973 	0.00724582 	0.00351388 24.9973 	0.00730275 	0.00354148 24.9973 	0.00736011 	0.0035693 24.9986 	-1.35439e-05 	0.00198398 24.9974 	0.00704356 	0.00364217 24.9974 	0.00709934 	0.00367102 24.9974 	0.00715557 	0.00370009 24.9974 	0.00721223 	0.00372939 24.9986 	-1.56183e-05 	0.002042 24.9974 	0.00699927 	0.00372526 24.9974 	0.00705397 	0.00375437 24.9974 	0.00710909 	0.00378371 24.9974 	0.00716465 	0.00381328 24.9985 	-1.71416e-05 	0.00208463 24.9974 	0.006983 	0.00378004 24.9974 	0.00703645 	0.00380897 24.9974 	0.00709031 	0.00383813 24.9973 	0.00714458 	0.0038675 24.9985 	-1.85812e-05 	0.00212181 24.9974 	0.0069832 	0.00381573 24.9974 	0.00703532 	0.0038442 24.9973 	0.00708783 	0.00387289 24.9973 	0.00714073 	0.0039018 24.9985 	-1.97773e-05 	0.00215442 24.9974 	0.00699549 	0.00383673 24.9973 	0.00704624 	0.00386456 24.9973 	0.00709736 	0.0038926 24.9973 	0.00714885 	0.00392084 24.9984 	-2.07011e-05 	0.00218325 24.9973 	0.00701518 	0.00384668 24.9973 	0.00706456 	0.00387375 24.9973 	0.00711428 	0.00390101 24.9973 	0.00716435 	0.00392847 24.9984 	-2.14967e-05 	0.00220982 24.9973 	0.00704127 	0.00385309 24.9973 	0.00708935 	0.0038794 24.9973 	0.00713775 	0.00390589 24.9973 	0.00718649 	0.00393256 24.9984 	-2.2216e-05 	0.00222861 24.9699 	0.00550264 	0.0421341 24.9417 	0.00441759 	0.0815926 24.9134 	0.00381563 	0.121247 24.8849 	0.00370025 	0.161099 24.861 	0.00278555 	0.190941