# vtk DataFile Version 2.0
track0
ASCII
DATASET POLYDATA
POINTS 15199 float
-1.001 -0.05 0.0011
-1.00088 -0.05 0.0011
-1.00076 -0.05 0.00109999
-1.00064 -0.05 0.00109999
-1.00052 -0.05 0.00109999
-1.0004 -0.05 0.00109998
-0.975398 -0.05 0.00109925
-0.9504 -0.0499999 0.00109824
-0.925402 -0.0499999 0.00109723
-0.900404 -0.0499998 0.00109622
-0.875406 -0.0499998 0.00109522
-0.850407 -0.0499998 0.0010941
-0.825407 -0.0499997 0.00109261
-0.800408 -0.0499995 0.00109113
-0.775408 -0.0499994 0.00108966
-0.750409 -0.0499992 0.00108818
-0.737914 -0.0499991 0.00108725
-0.72542 -0.0499989 0.00108572
-0.712925 -0.0499988 0.00108419
-0.700431 -0.0499986 0.00108266
-0.687936 -0.0499984 0.00108114
-0.675431 -0.0499985 0.00108007
-0.662926 -0.0499982 0.00107838
-0.65042 -0.049998 0.00107669
-0.637915 -0.0499978 0.00107501
-0.62541 -0.0499976 0.00107333
-0.612898 -0.0499974 0.00107202
-0.600387 -0.0499972 0.0010701
-0.587876 -0.0499969 0.00106818
-0.575365 -0.0499966 0.00106626
-0.562854 -0.0499964 0.00106434
-0.550338 -0.0499964 0.00106278
-0.537822 -0.0499961 0.00106062
-0.525307 -0.0499957 0.00105846
-0.512791 -0.0499953 0.00105631
-0.500275 -0.049995 0.00105416
-0.487751 -0.0499946 0.00105238
-0.475226 -0.0499941 0.00105007
-0.462701 -0.0499936 0.00104776
-0.450177 -0.0499932 0.00104546
-0.437652 -0.0499927 0.00104317
-0.42513 -0.0499928 0.00104123
-0.412607 -0.0499921 0.00103879
-0.400084 -0.0499915 0.00103636
-0.387562 -0.0499909 0.00103393
-0.375039 -0.0499902 0.0010315
-0.362534 -0.0499894 0.0010297
-0.350028 -0.0499886 0.00102807
-0.337522 -0.0499878 0.00102643
-0.325017 -0.049987 0.0010248
-0.312511 -0.0499862 0.00102317
-0.306259 -0.0499857 0.00102242
-0.300007 -0.0499848 0.00102111
-0.293755 -0.0499839 0.00101981
-0.287503 -0.0499829 0.00101851
-0.281251 -0.049982 0.0010172
-0.275 -0.0499808 0.00101656
-0.26875 -0.0499797 0.00101557
-0.2625 -0.0499786 0.00101458
-0.25625 -0.0499774 0.00101359
-0.25 -0.0499763 0.00101261
-0.24375 -0.0499757 0.0010122
-0.2375 -0.0499744 0.00101148
-0.23125 -0.049973 0.00101076
-0.225 -0.0499716 0.00101005
-0.21875 -0.0499702 0.00100933
-0.2125 -0.0499687 0.00100918
-0.20625 -0.049967 0.00100881
-0.2 -0.0499653 0.00100843
-0.19375 -0.0499637 0.00100806
-0.1875 -0.049962 0.00100769
-0.18125 -0.0499613 0.00100791
-0.175 -0.0499593 0.00100799
-0.16875 -0.0499573 0.00100808
-0.1625 -0.0499554 0.00100816
-0.15625 -0.0499534 0.00100824
-0.153125 -0.0499523 0.00100842
-0.15 -0.04995 0.00100869
-0.146875 -0.0499478 0.00100896
-0.14375 -0.0499455 0.00100923
-0.140625 -0.0499433 0.0010095
-0.1375 -0.0499413 0.00100978
-0.134374 -0.0499388 0.00101026
-0.131249 -0.0499362 0.00101073
-0.128124 -0.0499337 0.00101121
-0.124999 -0.0499311 0.00101169
-0.121874 -0.0499297 0.00101209
-0.118749 -0.0499268 0.00101273
-0.115624 -0.049924 0.00101338
-0.112499 -0.0499211 0.00101403
-0.109374 -0.0499183 0.00101467
-0.106249 -0.0499161 0.00101521
-0.103124 -0.049913 0.00101599
-0.0999989 -0.0499099 0.00101676
-0.0968739 -0.0499068 0.00101754
-0.0937488 -0.0499037 0.00101831
-0.0906239 -0.0499021 0.00101894
-0.0874989 -0.0498988 0.00101983
-0.0843739 -0.0498955 0.00102072
-0.0812489 -0.0498921 0.00102162
-0.0781239 -0.0498888 0.00102251
-0.0749989 -0.0498864 0.00102327
-0.0718739 -0.0498828 0.00102427
-0.0687489 -0.0498793 0.00102527
-0.0656238 -0.0498757 0.00102627
-0.0624988 -0.0498722 0.00102727
-0.0593738 -0.0498704 0.00102811
-0.0562488 -0.0498666 0.00102922
-0.0531238 -0.0498628 0.00103033
-0.0499988 -0.0498591 0.00103144
-0.0468738 -0.0498553 0.00103255
-0.0437488 -0.0498526 0.00103352
-0.0406238 -0.0498486 0.00103473
-0.0374988 -0.0498446 0.00103594
-0.0343738 -0.0498406 0.00103716
-0.0312488 -0.0498366 0.00103838
-0.0281239 -0.0498346 0.00103942
-0.0249989 -0.0498304 0.00104074
-0.0218739 -0.0498262 0.00104205
-0.018749 -0.0498219 0.00104337
-0.015624 -0.0498177 0.00104469
-0.012499 -0.0498147 0.00104585
-0.00937393 -0.0498103 0.00104726
-0.00624889 -0.0498058 0.00104868
-0.00312386 -0.0498014 0.0010501
1.18298e-06 -0.0497969 0.00105152
0.00312621 -0.0497947 0.00105275
0.00625124 -0.04979 0.00105426
0.00937627 -0.0497854 0.00105577
0.0125013 -0.0497807 0.00105728
0.0156263 -0.049776 0.0010588
0.0187516 -0.0497728 0.00106014
0.0218768 -0.0497679 0.00106174
0.025002 -0.049763 0.00106334
0.0281273 -0.049758 0.00106495
0.0312525 -0.0497531 0.00106655
0.0343793 -0.0497508 0.00106798
0.037506 -0.0497456 0.00106967
0.0406327 -0.0497405 0.00107136
0.0437595 -0.0497353 0.00107305
0.0468862 -0.0497302 0.00107475
0.050011 -0.0497267 0.00107626
0.0531358 -0.0497214 0.00107804
0.0562606 -0.049716 0.00107981
0.0593853 -0.0497107 0.00108159
0.0625101 -0.0497053 0.00108337
0.065635 -0.0497028 0.00108496
0.0687598 -0.0496972 0.00108682
0.0718846 -0.0496916 0.00108867
0.0750094 -0.049686 0.00109053
0.0781342 -0.0496804 0.0010924
0.0812601 -0.0496767 0.00109407
0.084386 -0.0496709 0.001096
0.0875119 -0.0496651 0.00109794
0.0906377 -0.0496593 0.00109988
0.0937636 -0.0496535 0.00110182
0.0968915 -0.0496508 0.00110356
0.100019 -0.0496447 0.00110557
0.103147 -0.0496387 0.00110758
0.106275 -0.0496327 0.0011096
0.109403 -0.0496266 0.00111162
0.112529 -0.0496227 0.00111343
0.115655 -0.0496165 0.00111551
0.118781 -0.0496102 0.00111759
0.121907 -0.049604 0.00111967
0.125032 -0.0495977 0.00112176
0.128157 -0.0495948 0.00112364
0.131283 -0.0495884 0.00112578
0.134408 -0.049582 0.00112792
0.137533 -0.0495755 0.00113007
0.140658 -0.0495691 0.00113222
0.143784 -0.0495649 0.00113416
0.146909 -0.0495582 0.00113636
0.150035 -0.0495516 0.00113857
0.153161 -0.0495449 0.00114078
0.156287 -0.0495382 0.00114299
0.159413 -0.0495352 0.00114499
0.16254 -0.0495284 0.00114724
0.165667 -0.0495215 0.00114951
0.168794 -0.0495146 0.00115178
0.171921 -0.0495077 0.00115405
0.175047 -0.0495033 0.00115609
0.178172 -0.0494963 0.0011584
0.181298 -0.0494892 0.00116071
0.184424 -0.0494822 0.00116303
0.18755 -0.0494751 0.00116536
0.190674 -0.0494719 0.00116745
0.193799 -0.0494646 0.0011698
0.196923 -0.0494574 0.00117216
0.200048 -0.0494501 0.00117453
0.203172 -0.0494429 0.0011769
0.206296 -0.0494382 0.00117902
0.209421 -0.0494308 0.00118142
0.212545 -0.0494234 0.00118382
0.215669 -0.049416 0.00118623
0.218794 -0.0494085 0.00118864
0.221919 -0.0494052 0.00119081
0.225045 -0.0493976 0.00119324
0.22817 -0.04939 0.00119568
0.231296 -0.0493823 0.00119813
0.234421 -0.0493747 0.00120057
0.237548 -0.0493699 0.00120277
0.240674 -0.0493621 0.00120524
0.2438 -0.0493543 0.00120771
0.246927 -0.0493465 0.00121019
0.250053 -0.0493387 0.00121268
0.25318 -0.0493352 0.0012149
0.256307 -0.0493273 0.00121741
0.259434 -0.0493193 0.00121991
0.262561 -0.0493114 0.00122242
0.265688 -0.0493034 0.00122494
0.268813 -0.0492984 0.00122718
0.271938 -0.0492903 0.00122971
0.275062 -0.0492822 0.00123223
0.278187 -0.0492741 0.00123477
0.281312 -0.049266 0.00123731
0.284435 -0.0492623 0.00123958
0.287558 -0.0492541 0.00124212
0.290681 -0.0492459 0.00124467
0.293804 -0.0492376 0.00124722
0.296927 -0.0492294 0.00124978
0.30005 -0.0492242 0.00125205
0.303174 -0.0492158 0.00125461
0.306297 -0.0492075 0.00125717
0.309421 -0.0491991 0.00125974
0.312544 -0.0491907 0.00126231
0.315668 -0.049187 0.00126461
0.318793 -0.0491785 0.00126718
0.321917 -0.04917 0.00126975
0.325041 -0.0491615 0.00127233
0.328166 -0.049153 0.00127491
0.331291 -0.0491476 0.00127721
0.334416 -0.049139 0.00127978
0.337541 -0.0491304 0.00128237
0.340666 -0.0491218 0.00128495
0.343791 -0.0491131 0.00128755
0.346916 -0.0491093 0.00128986
0.350042 -0.0491006 0.00129244
0.353168 -0.0490918 0.00129503
0.356294 -0.0490831 0.00129762
0.35942 -0.0490743 0.00130022
0.362549 -0.0490688 0.00130253
0.365679 -0.04906 0.00130512
0.368808 -0.0490512 0.00130771
0.371938 -0.0490423 0.00131031
0.375068 -0.0490334 0.00131291
0.378205 -0.0490295 0.00131524
0.381343 -0.0490205 0.00131783
0.384481 -0.0490116 0.00132043
0.387619 -0.0490026 0.00132304
0.390756 -0.0489936 0.00132565
0.393889 -0.048988 0.00132795
0.397022 -0.048979 0.00133053
0.400155 -0.04897 0.00133313
0.403288 -0.0489609 0.00133572
0.406421 -0.0489518 0.00133832
0.409551 -0.0489478 0.00134063
0.412682 -0.0489388 0.00134321
0.415813 -0.0489296 0.0013458
0.418943 -0.0489205 0.00134839
0.422074 -0.0489114 0.00135098
0.425204 -0.0489057 0.00135326
0.428334 -0.0488965 0.00135583
0.431464 -0.0488873 0.00135841
0.434594 -0.0488781 0.00136099
0.437724 -0.0488689 0.00136358
0.440854 -0.0488649 0.00136587
0.443984 -0.0488556 0.00136843
0.447114 -0.0488464 0.001371
0.450244 -0.0488371 0.00137357
0.453374 -0.0488278 0.00137615
0.456504 -0.048822 0.00137841
0.459634 -0.0488127 0.00138096
0.462763 -0.0488034 0.00138352
0.465893 -0.0487941 0.00138608
0.469023 -0.0487847 0.00138864
0.472152 -0.0487806 0.00139091
0.475282 -0.0487713 0.00139344
0.478411 -0.0487619 0.00139598
0.481541 -0.0487525 0.00139853
0.48467 -0.0487431 0.00140108
0.4878 -0.0487373 0.00140331
0.490929 -0.0487279 0.00140583
0.494058 -0.0487184 0.00140835
0.497187 -0.048709 0.00141088
0.500317 -0.0486995 0.00141342
0.503446 -0.0486954 0.00141565
0.506575 -0.048686 0.00141815
0.509704 -0.0486765 0.00142066
0.512833 -0.048667 0.00142317
0.515962 -0.0486575 0.00142569
0.519091 -0.0486516 0.00142788
0.52222 -0.0486421 0.00143036
0.525348 -0.0486326 0.00143285
0.528477 -0.0486231 0.00143534
0.531606 -0.0486136 0.00143784
0.534734 -0.0486094 0.00144003
0.537863 -0.0485999 0.00144249
0.540992 -0.0485904 0.00144496
0.54412 -0.0485808 0.00144743
0.547249 -0.0485713 0.0014499
0.550377 -0.0485653 0.00145205
0.553506 -0.0485558 0.00145449
0.556634 -0.0485463 0.00145694
0.559762 -0.0485367 0.00145938
0.562891 -0.0485271 0.00146184
0.566019 -0.0485229 0.00146399
0.569147 -0.0485134 0.0014664
0.572275 -0.0485038 0.00146882
0.575403 -0.0484942 0.00147124
0.578532 -0.0484846 0.00147367
0.58166 -0.0484787 0.00147578
0.584788 -0.0484691 0.00147817
0.587915 -0.0484596 0.00148056
0.591043 -0.04845 0.00148296
0.594171 -0.0484404 0.00148536
0.597299 -0.0484362 0.00148747
0.600427 -0.0484266 0.00148985
0.603555 -0.048417 0.00149222
[...]
POINT_DATA 15199
 FIELD attributes 2
p 1 15199 float
-4.95204 -4.95361 -4.95518 -4.95675 -4.95832 -4.95989 -5.47263 -5.98464 -6.50686 -7.02909 -7.54831 -8.44103 -9.33869 -10.2364 -11.1321 -11.9854 -12.5618 -13.1517 -13.7415 -14.3314 -14.9893 -15.8214 -16.6453 -17.4691 -18.293 -19.1137 -20.0693 -21.0226 -21.9759 -22.9292 -23.8883 -25.0546 -26.2118 -27.3689 -28.5261 -29.6861 -31.0863 -32.4862 -33.8862 -35.2861 -36.7025 -38.3618 -40.0116 -41.6614 -43.3112 -44.9722 -46.8015 -48.6317 -50.4618 -52.292 -54.4292 -55.2538 -56.1132 -57.0755 -58.0379 -59.0183 -59.9161 -60.8118 -61.7077 -62.6163 -63.5215 -64.2691 -65.018 -65.7556 -66.4931 -67.2338 -67.8655 -68.5052 -69.1449 -69.7912 -70.4465 -70.9796 -71.5133 -72.0281 -72.5324 -72.9979 -73.0991 -73.2566 -73.4142 -73.5717 -73.7932 -73.9359 -74.0905 -74.2451 -74.3996 -74.5824 -74.6801 -74.7882 -74.8962 -75.0043 -75.1366 -75.1978 -75.2591 -75.3203 -75.3816 -75.4482 -75.4608 -75.4756 -75.4905 -75.5053 -75.5242 -75.493 -75.4614 -75.4297 -75.3981 -75.3673 -75.2905 -75.2137 -75.1369 -75.0601 -74.9842 -74.8662 -74.7464 -74.6265 -74.5067 -74.3861 -74.2266 -74.066 -73.9053 -73.7447 -73.5839 -73.3875 -73.1882 -72.9889 -72.7896 -72.5888 -72.3548 -72.1191 -71.8834 -71.6477 -71.4114 -71.1453 -70.8755 -70.6057 -70.336 -70.0644 -69.7652 -69.4639 -69.1626 -68.8614 -68.5596 -68.2339 -67.9043 -67.5746 -67.2449 -66.9134 -66.5605 -66.2054 -65.8503 -65.4952 -65.1398 -64.7663 -64.3887 -64.011 -63.6334 -63.2538 -62.859 -62.4619 -62.0649 -61.6678 -61.2705 -60.8617 -60.4488 -60.0359 -59.623 -59.2083 -58.7847 -58.3588 -57.933 -57.5072 -57.0811 -56.649 -56.2129 -55.7768 -55.3407 -54.9028 -54.4612 -54.0174 -53.5737 -53.1299 -52.6859 -52.2411 -51.7925 -51.3439 -50.8953 -50.4451 -49.9964 -49.5455 -49.0947 -48.6438 -48.1928 -47.7455 -47.2944 -46.8434 -46.3924 -45.9398 -45.4925 -45.0432 -44.5938 -44.1445 -43.6949 -43.2525 -42.8068 -42.361 -41.9152 -41.4681 -41.0297 -40.5895 -40.1493 -39.7091 -39.2687 -38.839 -38.4062 -37.9734 -37.5406 -37.1066 -36.6843 -36.2602 -35.836 -35.4119 -34.9875 -34.5758 -34.1613 -33.7468 -33.3322 -32.9165 -32.5143 -32.1102 -31.7061 -31.302 -30.8974 -30.5073 -30.1144 -29.7216 -29.3287 -28.9347 -28.5556 -28.1747 -27.7939 -27.413 -27.0315 -26.6655 -26.297 -25.9286 -25.5601 -25.1905 -24.8366 -24.4808 -24.125 -23.7693 -23.4129 -23.0732 -22.7313 -22.3893 -22.0474 -21.7043 -21.3781 -21.0501 -20.7222 -20.3942 -20.0655 -19.7537 -19.4398 -19.1259 -18.812 -18.4969 -18.1987 -17.8988 -17.5989 -17.299 -16.9981 -16.7142 -16.4281 -16.1421 -15.856 -15.5687 -15.298 -15.0257 -14.7533 -14.4809 -14.2074 -13.9506 -13.6918 -13.433 -13.1742 -12.9141 -12.6703 -12.4248 -12.1793 -11.9338 -11.6871 -11.4565 -11.2238 -10.9912 -10.7586 -10.5245 -10.3061 -10.0858 -9.86557 -9.64531 -9.4237 -9.2173 -9.0088 -8.8003 -8.59179 -8.38175 -8.18614 -7.9882 -7.79025 -7.59231 -7.39281 -7.20724 -7.01868 -6.83013 -6.64157 -6.45121 -6.27511 -6.09894 -5.92276 -5.74659 -5.57072 -5.40834 -5.24693 -5.08552 -4.92411 -4.76359 -4.61387 -4.46395 -4.31402 -4.1641 -4.01408 -3.87347 -3.73159 -3.58971 -3.44783 -3.30517 -3.17255 -3.04048 -2.90842 -2.77635 -2.64501 -2.52498 -2.40691 -2.28885 -2.17078 -2.05383 -1.94695 -1.83821 -1.72947 -1.62073 -1.50947 -1.40707 -1.30163 -1.19619 -1.09075 -0.982345 -0.884043 -0.783563 -0.683084 -0.582603 -0.480232 -0.388475 -0.295112 -0.201748 -0.108385 -0.0136985 0.0710912 0.157254 0.243417 0.32958 0.416983 0.495241 0.574834 0.654426 0.734017 0.814796 0.887142 0.960664 1.03419 1.10771 1.18231 1.24898 1.31671 1.38445 1.45218 1.52089 1.58215 1.64432 1.70649 1.76866 1.83169 1.88779 1.94481 2.00182 2.05883 2.11673 2.16812 2.22028 2.27244 2.3246 2.37751 2.42431 2.47188 2.51944 2.56701 2.61536 2.65798 2.70128 2.74458 2.78789 2.83189 2.87047 2.90974 2.94901 2.98828 3.02826 3.06308 3.09847 3.13386 3.16926 3.20525 3.23627 3.26784 3.29941 3.33098 3.36311 3.39053 3.41845 3.44637 3.47429 3.50278 3.52657 3.5502 3.57384 3.59747 3.62126 3.64037 3.65997 3.67958 3.69918 3.72073 3.73882 3.75779 3.77675 3.79572 3.81453 3.8428 3.88236 3.92047 3.95754 3.99305 4.0177 4.04381 4.06865 4.09192 4.1171 4.13068 4.14314 4.15653 4.17077 4.1866 4.2004 4.223 4.24462 4.26519 4.29406 4.32554 4.37412 4.42915 4.48418 4.53073 4.55559 4.57857 4.60235 4.62613 4.64503 4.65848 4.66767 4.67686 4.68539 4.68776 4.67636 4.66253 4.64923 4.63592 4.61816 4.58045 4.5387 4.49695 4.45357 4.40294 4.35198 4.31745 4.28608 4.25472 4.2288 4.05864 4.05319 4.0465 4.0398 4.02703 4.04144 4.04418 4.04693 4.05187 4.04477 3.98137 3.89879 3.77958 3.66036 3.52937 3.29498 3.05487 2.81476 2.63769 2.46551 2.27243 2.10163 1.93083 1.7208 1.64501 1.81939 1.98941 2.15943 2.32945 2.3142 2.23783 2.15649 2.07515 1.99382 1.90359 1.60062 1.30295 1.00528 0.707614 0.50455 0.288016 0.0930404 -0.101937 -0.296916 -0.385467 -0.211385 -0.0332359 0.14491 0.323054 0.43697 0.598795 0.76613 0.933464 1.1008 1.25818 1.35813 1.44512 1.5321 1.61909 1.69613 1.64441 1.58086 1.51731 1.45376 1.31675 1.17678 1.02742 0.878065 0.728707 0.599944 0.51854 0.432662 0.346785 0.260907 0.188876 0.175151 0.158747 0.142344 0.125941 0.112875 0.112396 0.109775 0.107154 0.104533 0.102784 0.100264 0.0960404 0.0918168 0.0875934 0.0841118 0.082025 0.0786191 0.0752134 0.0718077 0.0689013 0.0679942 0.0660029 0.0640117 0.0620205 0.0603496 0.0608393 0.0604726 0.060106 0.0597395 0.0597292 0.0545237 0.0484636 0.0424348 0.0364378 0.031428
-4.7634 -4.76496 -4.76651 -4.76807 -4.76962 -4.77118 -5.29993 -5.82868 -6.34366 -6.7977 -7.25173 -8.03713 -8.82264 -9.65498 -10.9315 -12.1686 -12.6355 -13.137 -13.6384 -14.1397 -14.8011 -15.6329 -16.4326 -17.2323 -18.0321 -18.8234 -19.7998 -20.7531 -21.7064 -22.6597 -23.5974 -24.7559 -25.9323 -27.1087 -28.2851 -29.4753 -30.8876 -32.3371 -33.7867 -35.2362 -36.6946 -38.3184 -40.047 -41.7757 -43.5047 -45.2854 -47.1219 -49.1364 -51.1511 -53.1832 -55.6566 -56.5395 -57.4216 -58.4397 -59.3687 -60.2838 -61.2971 -62.3008 -63.2204 -64.0347 -64.8363 -65.6638 -66.49 -67.291 -68.0321 -68.7677 -69.4658 -70.1632 -70.8528 -71.4971 -72.1367 -72.696 -73.254 -73.792 -74.355 -74.9254 -75.0437 -75.1987 -75.3497 -75.5007 -75.7108 -75.8474 -75.9959 -76.1445 -76.3006 -76.4887 -76.5989 -76.7076 -76.8103 -76.9131 -77.0286 -77.0841 -77.142 -77.1999 -77.2607 -77.3285 -77.3394 -77.3526 -77.3652 -77.3779 -77.3945 -77.3604 -77.3283 -77.2962 -77.2642 -77.2337 -77.1517 -77.0715 -76.9926 -76.9137 -76.8361 -76.7109 -76.5874 -76.464 -76.338 -76.2117 -76.0404 -75.8712 -75.7059 -75.5407 -75.3761 -75.1699 -74.9651 -74.7603 -74.5498 -74.3385 -74.0876 -73.8381 -73.5956 -73.3531 -73.1109 -72.8328 -72.5554 -72.2781 -71.9917 -71.7048 -71.6663 -71.6278 -71.5893 -71.5508 -71.5126 -71.2301 -70.9512 -70.6779 -70.4047 -70.1315 -69.7914 -69.4521 -69.1114 -68.7611 -68.4123 -68.0348 -67.658 -67.2898 -66.9243 -66.5593 -66.1684 -65.7802 -65.3876 -64.9873 -64.5903 -64.1689 -63.7491 -63.3355 -62.9274 -62.5206 -62.0915 -61.6675 -61.2361 -60.8 -60.3698 -59.9182 -59.4698 -59.0242 -58.5871 -58.1527 -57.6976 -57.2505 -56.7931 -56.3341 -55.8842 -55.4134 -54.9476 -54.4818 -54.0266 -53.5761 -53.1051 -52.6436 -52.1728 -51.7019 -51.2432 -50.7635 -50.2914 -49.8193 -49.3536 -48.8983 -48.4218 -47.9553 -47.4834 -47.0115 -46.5551 -46.0762 -45.6075 -45.1388 -44.6728 -44.2224 -43.749 -43.2864 -42.822 -42.3576 -41.9118 -41.4413 -40.9837 -40.526 -40.0684 -39.6304 -39.1676 -38.7187 -38.2698 -37.8209 -37.3884 -36.9371 -36.4978 -36.0584 -35.6189 -35.191 -34.7521 -34.3229 -33.8938 -33.4648 -33.0444 -32.6202 -32.2027 -31.7852 -31.3673 -30.9531 -30.5429 -30.1371 -29.7318 -29.3265 -28.9221 -28.8234 -28.7255 -28.6275 -28.5296 -28.4318 -28.1366 -27.8415 -27.5464 -27.2503 -26.9545 -26.5716 -26.1908 -25.8106 -25.4304 -25.051 -24.6821 -24.3163 -23.9504 -23.584 -23.219 -22.863 -22.5114 -22.1606 -21.8097 -21.4607 -21.1186 -20.7823 -20.4461 -20.109 -19.775 -19.4463 -19.124 -18.8024 -18.4808 -18.1623 -17.8481 -17.5405 -17.2335 -16.9266 -16.6228 -16.3239 -16.0292 -15.7369 -15.4458 -15.1567 -14.8725 -14.5915 -14.3134 -14.0369 -13.7621 -13.4925 -13.2247 -12.9608 -12.6996 -12.4393 -12.1837 -11.9289 -11.6789 -11.432 -11.1855 -10.9442 -10.7029 -10.4665 -10.2338 -10.001 -9.77277 -9.54452 -9.32105 -9.10127 -8.8815 -8.66673 -8.45196 -8.24135 -8.03474 -7.82814 -7.62572 -7.42331 -7.22492 -7.03022 -6.83552 -6.64569 -6.45585 -6.26964 -6.0872 -5.90477 -5.72628 -5.54779 -5.37324 -5.20205 -5.03086 -4.86434 -4.69826 -4.53526 -4.37521 -4.21578 -4.05979 -3.90493 -3.75285 -3.60279 -3.45376 -3.30889 -3.16551 -3.02382 -2.88366 -2.74529 -2.60969 -2.47646 -2.34467 -2.21372 -2.08472 -1.95915 -1.83612 -1.71375 -1.59176 -1.4726 -1.35548 -1.24171 -1.12812 -1.01452 -0.903305 -0.795164 -0.689689 -0.584265 -0.478859 -0.375689 -0.275204 -0.177391 -0.0795625 0.0183595 0.114932 0.207519 0.298284 0.388894 0.479482 0.568901 0.654167 0.737797 0.821432 0.90521 0.988351 1.06634 1.14353 1.22057 1.2976 1.37435 1.42309 1.47144 1.51978 1.56812 1.617 1.63966 1.66232 1.68498 1.70764 1.72983 1.796 1.86176 1.92738 1.993 2.05684 2.11855 2.17874 2.23893 2.29926 2.35633 2.41445 2.46973 2.52482 2.57992 2.63067 2.6847 2.73499 2.78529 2.83579 2.88033 2.93135 2.97732 3.02306 3.0688 3.10791 3.15519 3.19674 3.23829 3.28001 3.31337 3.35839 3.39622 3.43388 3.47092 3.50035 3.54111 3.57615 3.61025 3.64254 3.66812 3.7061 3.73909 3.76993 3.79789 3.82078 3.855 3.88507 3.91234 3.93637 3.9555 3.98724 4.01386 4.03816 4.05997 4.07667 4.10559 4.12959 4.15147 4.17078 4.18493 4.21589 4.23575 4.25125 4.26363 4.26533 4.30221 4.32941 4.35818 4.39069 4.41343 4.44855 4.47482 4.50109 4.52776 4.5497 4.58082 4.60302 4.62389 4.64475 4.66183 4.67939 4.69205 4.7047 4.71735 4.73188 4.76053 4.78917 4.79422 4.75923 4.72424 4.81544 4.90664 4.93075 4.88856 4.84636 4.91874 4.99113 4.99766 4.93594 4.87422 4.93889 5.00355 4.99259 4.90602 4.81945 4.85665 4.89387 4.86348 4.76319 4.66291 4.73275 4.80258 4.75855 4.60855 4.45853 4.36791 4.29276 4.23667 4.18058 4.10047 4.23619 4.25069 4.26501 4.27934 4.16403 4.21443 4.10519 3.99596 3.89313 3.69481 3.536 3.34821 3.15066 2.95311 2.74806 2.30424 1.89701 1.54104 1.33981 1.31943 1.53427 1.69951 1.97044 2.37545 2.61311 2.73938 2.76739 2.75262 2.67687 2.51993 2.18017 1.88942 1.60134 1.3141 1.08505 0.723086 0.544687 -0.0184602 -0.505407 -0.614251 -0.468217 -0.292413 -0.116638 0.0268778 0.118286 0.193316 0.23922 0.398411 0.557561 0.665234 0.812432 0.89064 0.968811 1.053 1.07946 1.05627 0.980281 0.904073 0.997297 1.05968 1.07615 0.92626 0.775887 0.625514 0.45694 0.456538 0.372135 0.285754 0.199373 0.107027 0.12518 0.109794 0.0930274 0.0762595 0.0541786 0.0723514 0.0705786 0.0676728 0.0647665 0.0572561 0.0685171 0.0652004 0.0607611 0.0563215 0.0485442 0.0560252 0.0534283 0.0498562 0.0462838 0.0403053 0.0466157 0.0453834 0.0432611 0.0411386 0.0371721 0.0436334 0.0440573 0.0435912 0.0431248 0.0413665 0.0479752 0.0440349 0.0378928 0.0317409 0.0248006
-4.57077 -4.57227 -4.57377 -4.57527 -4.57677 -4.57827 -5.09268 -5.56561 -6.03859 -6.50986 -6.96839 -7.77712 -8.65925 -9.54139 -10.3659 -11.5065 -12.0112 -12.5292 -13.0472 -13.5568 -14.1546 -14.9675 -15.7487 -16.5026 -17.2566 -18.0031 -18.9757 -19.9246 -20.8736 -21.8267 -22.7677 -23.9642 -25.1553 -26.3742 -27.5932 -28.8044 -30.2977 -31.8712 -33.4447 -34.9232 -36.4664 -38.2853 -40.0558 -42.01 -43.9627 -45.8456 -47.9083 -50.2068 -52.5126 -54.805 -57.5939 -58.4956 -59.4353 -60.371 -61.2637 -62.4623 -63.591 -64.6368 -65.6617 -66.6898 -67.775 -68.7715 -69.684 -70.5929 -71.5154 -72.5156 -73.3682 -74.1607 -74.9454 -75.7327 -76.5831 -77.283 -77.8975 -78.5123 -79.27 -79.9761 -80.1246 -80.3125 -80.4982 -80.6794 -80.9141 -81.0792 -81.2674 -81.4503 -81.63 -81.8342 -81.9644 -82.0976 -82.2354 -82.3786 -82.5252 -82.6103 -82.6967 -82.7804 -82.861 -82.9448 -82.9634 -82.9844 -83.0072 -83.0312 -83.0566 -83.0291 -83.0011 -82.9741 -82.9483 -82.9235 -82.8401 -82.7589 -82.6728 -82.5854 -82.4993 -82.3576 -82.2152 -82.0737 -81.9419 -81.8106 -81.6294 -81.4501 -81.2584 -81.067 -80.8773 -80.6373 -80.3963 -80.1556 -79.9294 -79.7073 -79.4423 -79.1725 -78.8915 -78.6108 -78.3309 -78.1102 -77.8895 -77.6689 -77.4485 -77.2379 -77.1366 -77.0388 -76.941 -76.8432 -76.7454 -76.4076 -76.054 -75.6946 -75.3354 -74.9775 -74.5861 -74.1947 -73.8035 -73.4125 -73.0399 -72.6356 -72.2144 -71.7933 -71.3724 -70.955 -70.5106 -70.0663 -69.6221 -69.1781 -68.741 -68.2783 -67.8126 -67.3481 -66.8838 -66.4213 -66.2597 -66.0982 -65.9366 -65.7751 -65.6178 -65.2987 -64.9796 -64.6606 -64.3417 -64.0222 -63.5241 -63.0317 -62.5394 -62.0472 -61.5544 -61.0424 -60.5416 -60.0409 -59.5404 -59.0322 -58.5022 -57.9934 -57.4848 -56.9763 -56.4676 -55.9416 -55.4307 -54.9199 -54.4007 -53.8798 -53.3417 -52.8175 -52.3047 -51.7921 -51.2796 -50.7514 -50.2408 -49.7303 -49.1976 -48.6824 -48.1512 -47.6245 -47.1136 -46.6066 -46.1009 -45.5816 -45.0825 -44.5715 -44.0508 -43.5511 -43.0366 -42.5269 -42.0185 -41.5266 -41.0358 -40.532 -40.0456 -39.5447 -39.0453 -38.5657 -38.0723 -37.5844 -37.0971 -36.6152 -36.1466 -35.6666 -35.1922 -34.7187 -34.2452 -33.7889 -33.3234 -32.8643 -32.4052 -31.9455 -31.4942 -31.0453 -30.6 -30.1554 -29.7108 -29.2679 -29.1562 -29.0452 -28.9342 -28.8232 -28.7125 -28.3933 -28.074 -27.7548 -27.4341 -27.1154 -26.6952 -26.2809 -25.8675 -25.454 -25.0442 -24.6361 -24.24 -23.8438 -23.4467 -23.0569 -22.6618 -22.2799 -21.901 -21.5243 -21.1519 -20.775 -20.4047 -20.0428 -19.6859 -19.3312 -18.9719 -18.6145 -18.2703 -17.9317 -17.5945 -17.2531 -16.9139 -16.5843 -16.2628 -15.943 -15.6193 -15.2961 -14.9817 -14.6786 -14.376 -14.0693 -13.7638 -13.4665 -13.1778 -12.8918 -12.6021 -12.3171 -12.0368 -11.7596 -11.4903 -11.2168 -10.9507 -10.6867 -10.4228 -10.1683 -9.91288 -9.66494 -9.41683 -9.16806 -8.92477 -8.6874 -8.45402 -8.22115 -7.98848 -7.75672 -7.70323 -7.65052 -7.59782 -7.54512 -7.49229 -7.32567 -7.15899 -6.99187 -6.82476 -6.6603 -6.45132 -6.24511 -6.03924 -5.83362 -5.63417 -5.43508 -5.24294 -5.05056 -4.85794 -4.67488 -4.48709 -4.30662 -4.12728 -3.95131 -3.78248 -3.60699 -3.43576 -3.26886 -3.10808 -2.95067 -2.78804 -2.62608 -2.47098 -2.32607 -2.18126 -2.0293 -1.8773 -1.734 -1.59939 -1.4648 -1.32459 -1.18439 -1.05254 -0.929364 -0.806203 -0.675574 -0.544978 -0.424168 -0.309393 -0.195148 -0.0752188 0.0417663 0.152937 0.260187 0.364098 0.475995 0.58146 0.683623 0.784802 0.880941 0.983219 1.07719 1.17095 1.26471 1.3532 1.44559 1.53148 1.61736 1.70334 1.78699 1.86857 1.94712 2.02558 2.10403 2.18213 2.19315 2.20374 2.21432 2.2249 2.23551 2.2975 2.35949 2.42147 2.48357 2.54299 2.61134 2.6777 2.74392 2.81014 2.87148 2.93503 2.99521 3.05538 3.11566 3.16743 3.22788 3.28267 3.33716 3.38994 3.43658 3.49051 3.54155 3.59049 3.63536 3.67576 3.72581 3.77131 3.81493 3.85592 3.8926 3.93666 3.97755 4.01639 4.0513 4.08251 4.12338 4.15828 4.192 4.22498 4.25295 4.28849 4.3205 4.34949 4.3768 4.40001 4.43293 4.4592 4.48406 4.50991 4.53054 4.55871 4.58219 4.60354 4.62445 4.64096 4.66708 4.68577 4.70396 4.72232 4.73634 4.75778 4.77283 4.78765 4.80246 4.81374 4.8316 4.84323 4.85486 4.86648 4.87638 4.88868 4.8958 4.90292 4.91004 4.91613 4.94018 4.96517 4.98147 4.99151 4.99906 5.02312 5.04203 5.05329 5.06348 5.06846 5.07985 5.08248 5.08511 5.09285 5.09656 5.10193 5.10157 5.09809 5.0946 5.08719 5.0628 5.00142 4.97107 4.96455 4.94944 4.98122 4.99299 5.00328 5.01195 5.01767 5.02022 5.01879 5.01736 5.01593 5.01449 5.01512 5.01581 5.01891 5.022 4.99979 5.00301 4.98547 4.96556 4.94382 4.875 4.87363 4.83255 4.79442 4.76074 4.6508 4.66199 4.62786 4.58229 4.52371 4.39091 4.25767 4.19431 4.12895 4.04667 3.88213 4.20783 4.28715 4.33067 4.33915 4.13448 4.30531 4.21039 4.08415 3.93656 3.53751 3.58014 3.218 2.85588 2.50021 2.06978 1.71706 1.52859 1.34017 1.15179 1.03252 1.04701 1.05479 1.06257 1.07035 1.11207 1.48399 1.85609 2.22839 2.60089 2.59923 3.22386 3.30838 3.34566 3.28525 2.59966 2.93323 2.61263 2.29234 1.97236 1.30007 0.498213 -0.211889 -0.457218 -0.701417 -0.832147 -0.684704 -0.529922 -0.411435 -0.29288 -0.201393 -0.140825 -0.154803 -0.168773 -0.121382 -0.0157286 0.116258 0.192447 0.270996 0.350089 0.375308 0.333841 0.428695 0.543171 0.659877 0.724616 0.737795 0.72424 0.58911 0.437936 0.269721 0.267759 0.254962 0.180304 0.0934673 0.00102844 0.0182779 0.028697 0.0174708 0.000383493 -0.0217099 -0.00418781 0.00799962 0.00886709 0.00571739 -0.00178717 0.00900252 0.0158833 0.0148345 0.0102079 0.00241058 0.00955324 0.013877 0.0130527 0.0093331 0.00331688 0.00937527 0.0132782 0.0135512 0.0113121 0.00730397 0.0135813 0.0183075 0.0201704 0.0196141 0.0178115 0.0242846 0.0295473 0.0291724 0.0230007 0.0160677