# vtk DataFile Version 2.0
track0
ASCII
DATASET POLYDATA
POINTS 18854 float
-1.001 -0.05 0.0011
-1.00079 -0.05 0.0011
-1.00058 -0.0500001 0.0011
-1.00038 -0.0500001 0.0011
-1.00017 -0.0500002 0.00110001
-0.999962 -0.0500002 0.00110001
-0.98746 -0.0500028 0.00110016
-0.974958 -0.0500076 0.00109998
-0.962456 -0.0500124 0.00109981
-0.949954 -0.0500172 0.00109963
-0.937452 -0.050022 0.00109946
-0.924948 -0.0500223 0.00109968
-0.912445 -0.0500276 0.00109976
-0.899941 -0.0500329 0.00109983
-0.887437 -0.0500382 0.00109991
-0.874933 -0.0500435 0.00109998
-0.862428 -0.0500439 0.0011003
-0.849922 -0.0500499 0.00110054
-0.837416 -0.0500559 0.00110077
-0.82491 -0.050062 0.00110101
-0.812404 -0.050068 0.00110125
-0.799896 -0.0500721 0.00110156
-0.787388 -0.0500791 0.00110186
-0.774879 -0.0500861 0.00110215
-0.762371 -0.0500931 0.00110245
-0.749862 -0.0501001 0.00110275
-0.737351 -0.0501053 0.00110301
-0.724839 -0.0501137 0.00110329
-0.712327 -0.0501222 0.00110358
-0.699816 -0.0501307 0.00110386
-0.687304 -0.0501391 0.00110414
-0.674789 -0.0501402 0.00110434
-0.662273 -0.0501507 0.00110453
-0.649757 -0.0501613 0.00110472
-0.637242 -0.0501719 0.00110491
-0.624726 -0.0501824 0.0011051
-0.612206 -0.0501911 0.00110501
-0.599685 -0.0502049 0.00110498
-0.587165 -0.0502187 0.00110495
-0.574644 -0.0502325 0.00110493
-0.562124 -0.0502463 0.0011049
-0.549598 -0.0502581 0.00110434
-0.537072 -0.0502773 0.00110376
-0.524546 -0.0502965 0.00110319
-0.51202 -0.0503157 0.00110261
-0.499494 -0.0503349 0.00110204
-0.486962 -0.0503524 0.00110052
-0.47443 -0.050383 0.00109873
-0.461898 -0.0504136 0.00109694
-0.449366 -0.0504441 0.00109516
-0.436834 -0.0504746 0.00109338
-0.424293 -0.0504799 0.00108871
-0.411752 -0.050536 0.00108204
-0.399211 -0.0505918 0.00107542
-0.386669 -0.0506473 0.00106883
-0.374128 -0.0507024 0.00106229
-0.367853 -0.0507245 0.00105709
-0.361578 -0.0507796 0.00105284
-0.355302 -0.0508345 0.0010486
-0.349027 -0.0508892 0.00104439
-0.342751 -0.0509436 0.00104019
-0.336478 -0.0509805 0.00103484
-0.330205 -0.0510537 0.00103034
-0.323932 -0.0511267 0.00102587
-0.317659 -0.0511993 0.00102141
-0.311385 -0.0512716 0.00101697
-0.305109 -0.0513217 0.00101069
-0.298833 -0.0514216 0.00100508
-0.292557 -0.0515208 0.000999507
-0.286282 -0.0516195 0.000993964
-0.280004 -0.0517177 0.000988451
-0.273728 -0.0517836 0.000980904
-0.267453 -0.0519265 0.000973464
-0.261178 -0.0520682 0.000966081
-0.254904 -0.0522088 0.000958757
-0.248625 -0.0523484 0.000951484
-0.242358 -0.0524393 0.000942186
-0.236096 -0.0526664 0.000931335
-0.229833 -0.0528907 0.000920613
-0.22357 -0.0531124 0.000910018
-0.217295 -0.0533318 0.00089953
-0.211049 -0.05347 0.000887796
-0.204812 -0.0538427 0.000873392
-0.198576 -0.0542092 0.000859229
-0.192338 -0.0545696 0.000845303
-0.186067 -0.0549258 0.000831537
-0.182944 -0.0550357 0.000825739
-0.179828 -0.0552691 0.000820923
-0.176712 -0.055501 0.000816136
-0.173595 -0.0557316 0.000811378
-0.170452 -0.0559628 0.000806607
-0.167328 -0.0560811 0.000798553
-0.164212 -0.0563316 0.000795657
-0.161096 -0.0565812 0.000792771
-0.157979 -0.0568298 0.000789895
-0.154833 -0.05708 0.000787003
-0.151687 -0.057208 0.000784979
-0.14855 -0.0574888 0.000783661
-0.145413 -0.0577692 0.000782346
-0.142277 -0.0580491 0.000781032
-0.139104 -0.0583317 0.000779706
-0.135929 -0.0584724 0.000779716
-0.132767 -0.0587924 0.000780648
-0.129603 -0.0590997 0.000781702
-0.126438 -0.0593866 0.000782948
-0.123238 -0.0596572 0.00078439
-0.120026 -0.0598168 0.000786861
-0.116821 -0.0600864 0.000790954
-0.113614 -0.0603334 0.000795374
-0.110405 -0.0605592 0.000800103
-0.107188 -0.060766 0.000805138
-0.107121 -0.0607699 0.000805248
-0.107053 -0.0607739 0.000805361
-0.106985 -0.0607779 0.000805476
-0.106918 -0.0607819 0.000805592
-0.106852 -0.0607857 0.000805707
-0.103668 -0.0609731 0.000811325
-0.100486 -0.0612019 0.000819666
-0.0973055 -0.0614452 0.000827611
-0.0941261 -0.0617035 0.000835137
-0.090943 -0.0619774 0.000842234
-0.0876995 -0.0622077 0.000851509
-0.0844644 -0.0625349 0.00085874
-0.0812314 -0.0628835 0.000865373
-0.0780005 -0.06325 0.000871049
-0.0747626 -0.0636038 0.000876802
-0.0716076 -0.0637594 0.000886464
-0.0684658 -0.0640872 0.000890634
-0.0653284 -0.0644546 0.000893561
-0.0621911 -0.0648232 0.000896496
-0.0590622 -0.0651461 0.000900906
-0.0560866 -0.0652897 0.000910418
-0.0531198 -0.0655614 0.000913018
-0.0501576 -0.0658782 0.000913166
-0.0471953 -0.0661951 0.000913315
-0.0442286 -0.0664955 0.000919813
-0.041286 -0.0667511 0.000942912
-0.0383441 -0.067015 0.000949089
-0.0354025 -0.0672815 0.00094754
-0.0324608 -0.0675476 0.000945994
-0.0295169 -0.067799 0.0009542
-0.0265406 -0.0680238 0.000983639
-0.0235635 -0.0682391 0.000990494
-0.0205859 -0.0684472 0.000984868
-0.0176082 -0.0686543 0.000979271
-0.0146332 -0.0688174 0.000978286
-0.0116213 -0.0689012 0.000985989
-0.00861022 -0.0690101 0.00098208
-0.00559962 -0.0691319 0.000971912
-0.00258898 -0.0692525 0.000961839
0.000425148 -0.0693642 0.000965286
0.0034605 -0.0694567 0.000991413
0.00649686 -0.0695128 0.000994174
0.00953356 -0.0695432 0.000981302
0.0125703 -0.0695733 0.000968582
0.0156022 -0.069599 0.000969761
0.0186449 -0.0696175 0.000992701
0.0216875 -0.0695801 0.000994535
0.0247294 -0.0695093 0.000981675
0.0277714 -0.0694393 0.000968966
0.030814 -0.0693742 0.000968556
0.0338438 -0.0693216 0.000987519
0.0368718 -0.0692024 0.000988235
0.0398982 -0.0690481 0.000976567
0.0429247 -0.0688955 0.000965025
0.0459577 -0.0687782 0.000955288
0.0489758 -0.0687287 0.000949003
0.0519892 -0.0685508 0.000940824
0.0549983 -0.0683122 0.000931781
0.0580076 -0.0680757 0.000922816
0.0610275 -0.0678889 0.000913599
0.0640613 -0.0678139 0.000903744
0.0670871 -0.0675814 0.000894633
0.0701076 -0.0672875 0.00088587
0.0731284 -0.0669963 0.000877185
0.0761592 -0.0667272 0.000870431
0.0792644 -0.0665093 0.000868735
0.0823606 -0.0661885 0.000861139
0.0854534 -0.0658365 0.000851664
0.0885466 -0.065488 0.000842284
0.0916645 -0.0651621 0.000833185
0.0948247 -0.0649124 0.00082497
0.097977 -0.0645778 0.000811921
0.101128 -0.0642323 0.000798178
0.10428 -0.0638924 0.000784653
0.107455 -0.0635722 0.000771177
0.110647 -0.0634681 0.000757008
0.113827 -0.063179 0.000741459
0.117007 -0.0628993 0.000726291
0.12019 -0.0626393 0.000711711
0.123402 -0.062396 0.000697575
0.126588 -0.0622436 0.000685573
0.129771 -0.0620507 0.000673012
0.132955 -0.061872 0.000660901
0.13614 -0.0617066 0.000649223
0.13933 -0.061554 0.000637947
0.140934 -0.0614929 0.000632678
0.142538 -0.0614287 0.00062762
0.144142 -0.0613683 0.000622756
0.145746 -0.0613101 0.000617967
0.147464 -0.0612501 0.000612918
0.149005 -0.0611985 0.000608465
0.150545 -0.0611445 0.000604124
0.152086 -0.0610879 0.000599896
0.153626 -0.0610288 0.000595783
0.155168 -0.0609669 0.000591785
0.158315 -0.0608652 0.000583
0.161462 -0.0607347 0.000576405
0.164608 -0.0605941 0.000570215
0.167753 -0.0604427 0.000564445
0.170905 -0.0602792 0.000559097
0.174044 -0.0601902 0.000551767
0.177179 -0.060022 0.00054764
0.180313 -0.0598419 0.000543854
0.183447 -0.0596493 0.000540423
0.186597 -0.0594549 0.00053704
0.189732 -0.0593617 0.00053714
0.192862 -0.0591867 0.000534236
0.195993 -0.0590127 0.000531349
0.199124 -0.0588396 0.000528477
0.202269 -0.0586666 0.000525608
0.205402 -0.0585838 0.000525753
0.208532 -0.0584296 0.000522471
0.211662 -0.0582764 0.00051921
0.214793 -0.0581241 0.00051597
0.217933 -0.0579723 0.000512739
0.224191 -0.0578523 0.000504095
0.230446 -0.0576219 0.000503719
0.2367 -0.0573917 0.000503343
0.242955 -0.0571617 0.000502967
0.249221 -0.0569314 0.000502591
0.255492 -0.0568283 0.0005131
0.261762 -0.056685 0.000511396
0.268032 -0.0565422 0.000509698
0.274303 -0.0563999 0.000508005
0.280575 -0.056258 0.000506317
0.286864 -0.0562126 0.000502665
0.293152 -0.0561189 0.000500156
0.299439 -0.0560258 0.000497659
0.305727 -0.055933 0.000495175
0.312017 -0.0558408 0.000492703
0.318314 -0.0558037 0.000497492
0.324611 -0.0557332 0.000494638
0.330908 -0.0556631 0.000491801
0.337206 -0.0555934 0.00048898
0.343504 -0.0555241 0.000486174
0.349803 -0.0554976 0.000482646
0.356102 -0.055441 0.000479668
0.3624 -0.0553847 0.000476709
0.368699 -0.0553288 0.000473768
0.374999 -0.0552732 0.000470845
0.381289 -0.055251 0.000467417
0.387579 -0.0552031 0.000464541
0.393869 -0.0551554 0.000461683
0.400159 -0.055108 0.000458841
0.406449 -0.0550609 0.000456018
0.412727 -0.0550417 0.000452841
0.419004 -0.0549996 0.000450157
0.425282 -0.0549578 0.000447489
0.431559 -0.0549163 0.000444837
0.437837 -0.0548749 0.0004422
0.4441 -0.0548578 0.000439376
0.450362 -0.0548202 0.000436949
0.456625 -0.0547829 0.000434534
0.462887 -0.0547458 0.000432133
0.46915 -0.0547089 0.000429745
0.475399 -0.0546933 0.00042737
0.481649 -0.0546596 0.000425335
0.487899 -0.054626 0.000423311
0.494148 -0.0545925 0.000421296
0.500398 -0.0545593 0.00041929
0.506641 -0.0545429 0.000420912
0.512884 -0.0545119 0.000419293
0.519128 -0.0544811 0.000417681
0.525371 -0.0544504 0.000416075
0.531614 -0.0544199 0.000414475
0.537853 -0.0544063 0.000413134
0.544092 -0.0543779 0.000412034
0.550331 -0.0543496 0.000410936
0.55657 -0.0543214 0.000409842
0.562809 -0.0542933 0.00040875
0.569041 -0.0542791 0.000410515
0.575273 -0.0542528 0.000409768
0.581505 -0.0542265 0.000409023
0.587737 -0.0542002 0.00040828
0.593969 -0.054174 0.000407537
0.600195 -0.0541616 0.000407121
0.606421 -0.0541372 0.000406646
0.612647 -0.0541127 0.000406172
0.618873 -0.0540883 0.000405698
0.6251 -0.054064 0.000405225
0.631325 -0.0540516 0.000407167
0.637551 -0.0540287 0.000406908
0.643777 -0.0540059 0.00040665
0.650002 -0.053983 0.000406391
0.656228 -0.0539602 0.000406133
0.66246 -0.0539487 0.000406348
0.668691 -0.0539274 0.000406265
0.674923 -0.0539061 0.000406182
0.681154 -0.0538848 0.000406099
0.687386 -0.0538634 0.000406015
0.693627 -0.0538524 0.000406471
0.699869 -0.0538325 0.000406521
0.70611 -0.0538126 0.000406572
0.712351 -0.0537927 0.000406622
0.718593 -0.0537727 0.000406673
0.724846 -0.0537621 0.000407316
0.731099 -0.0537436 0.000407435
0.737352 -0.0537251 0.000407553
[...]
POINT_DATA 18854
 FIELD attributes 2
p 1 18854 float
18.5392 18.5448 18.5503 18.5559 18.5614 18.567 18.8628 19.1587 19.4545 19.7504 20.0879 20.4548 20.8045 21.1542 21.504 21.8504 22.238 22.62 23.0019 23.3839 23.7778 24.2395 24.6804 25.1213 25.5622 26.0041 26.5263 27.0383 27.5503 28.0624 28.595 29.2346 29.8233 30.4121 31.0009 31.5866 32.2897 32.9608 33.6319 34.303 35.0178 35.9113 36.6616 37.4119 38.1622 38.8939 39.8299 40.6424 41.455 42.2676 43.1786 44.5691 45.4119 46.2547 47.0975 48.4446 49.0762 49.6145 50.1989 50.7833 51.2732 51.6588 51.7059 51.7529 52.1202 52.2507 52.6171 52.7457 52.5446 52.3437 52.0532 51.883 51.2089 50.535 50.2481 49.7664 49.3903 48.4289 46.9764 45.5253 44.1207 42.3685 39.9047 37.4443 35.3397 32.3462 30.8889 29.4747 28.0147 26.5555 25.183 22.8544 20.5278 18.2017 15.9945 13.9607 11.2175 8.56 5.97196 3.38419 0.788407 -2.85019 -5.71407 -8.53252 -11.3457 -13.9989 -17.4728 -20.4315 -23.3894 -26.3463 -29.3115 -29.391 -29.451 -29.511 -29.5709 -29.6293 -32.4934 -35.281 -38.0616 -40.8351 -43.183 -45.1893 -47.5807 -49.9254 -52.1867 -54.0529 -55.0826 -57.0419 -59.3034 -60.6932 -62.9023 -63.1951 -63.6729 -64.7463 -66.3562 -68.5672 -67.6607 -67.3997 -67.6479 -68.4315 -69.8415 -68.4527 -67.6752 -67.6767 -68.3614 -69.5522 -68.5444 -68.0236 -68.1397 -69.1461 -70.8114 -69.5558 -68.8457 -69.0595 -69.9901 -71.4417 -70.3061 -69.5946 -69.741 -70.4818 -71.605 -70.2953 -69.5353 -69.5996 -69.9621 -70.6962 -69.5418 -68.8969 -68.9125 -69.2364 -69.8347 -68.4639 -68.0309 -68.2558 -69.2237 -71.1913 -69.7111 -69.1554 -69.0406 -69.5037 -70.6825 -68.5354 -67.1846 -65.2311 -63.3694 -62.5601 -60.2658 -58.0065 -55.7289 -53.4318 -51.6889 -49.6634 -47.6398 -45.6074 -43.5664 -41.6284 -40.671 -39.7194 -38.7653 -37.8104 -36.787 -35.8549 -34.9233 -33.9923 -33.0618 -32.0508 -30.3624 -28.6896 -27.017 -25.3446 -23.4814 -21.9861 -20.5242 -19.0604 -17.6003 -15.9492 -14.6399 -13.1579 -11.6761 -10.1946 -8.55004 -7.45687 -6.52766 -5.59869 -4.6706 -3.92723 -2.6147 -1.49743 -0.380202 0.789514 2.24637 2.26711 2.49053 2.71382 2.93697 2.91057 2.35576 1.81493 1.27396 0.732856 -0.110574 -1.35279 -2.21795 -3.08319 -3.94849 -4.82368 -5.91387 -6.89785 -7.88189 -8.87836 -10.1082 -11.4252 -12.4921 -13.5485 -14.6049 -15.6376 -16.759 -17.7932 -18.8274 -19.8721 -20.9526 -22.0034 -22.9269 -23.8449 -24.7629 -25.6137 -26.4506 -27.2042 -27.9578 -28.7163 -29.4203 -30.0994 -30.6697 -31.2353 -31.8009 -32.2894 -32.7498 -33.1211 -33.4925 -33.8681 -34.1655 -34.4342 -34.6117 -34.7888 -34.9659 -35.0571 -35.1313 -35.128 -35.1248 -35.1206 -35.0334 -34.9513 -34.7955 -34.6393 -34.4831 -34.257 -34.04 -33.7627 -33.4854 -33.2084 -32.8711 -32.5425 -32.166 -31.7915 -31.417 -30.9908 -30.5838 -30.1398 -29.6957 -29.2459 -28.7491 -28.2858 -27.8006 -27.3191 -26.8376 -26.3285 -25.8467 -25.3424 -24.8382 -24.3342 -23.8056 -23.2761 -22.7219 -22.1686 -21.6153 -21.0391 -20.4227 -19.7874 -19.152 -18.5106 -17.8422 -17.0916 -16.3326 -15.5833 -14.834 -14.0636 -13.1811 -12.2866 -11.3921 -10.4826 -9.54344 -8.4266 -7.3187 -6.23287 -5.14703 -4.04484 -2.72243 -1.40328 -0.0841225 1.27469 2.6773 4.3985 6.06589 7.66657 9.26725 10.8891 12.8431 14.7666 16.6902 18.7169 20.8313 23.3742 25.7565 27.9873 30.2181 32.4609 34.9906 37.3796 39.7686 42.3679 45.0977 48.0597 50.5576 52.7808 55.0039 57.1494 59.0629 60.557 62.0512 63.8378 65.7695 67.2268 67.4692 67.3363 67.2045 66.7577 65.1864 62.5599 59.9374 57.579 56.019 54.3354 52.4697 49.934 47.3627 44.6871 41.4089 37.7955 34.1845 31.0004 27.7271 23.4051 18.8309 13.9033 8.97937 4.18204 -2.63652 -9.43327 -16.2257 -23.0138 -29.3048 -39.5712 -47.8546 -55.6358 -63.3858 -71.2347 -71.4613 -71.5968 -71.7323 -71.8678 -72.0002 -81.5167 -91.0301 -100.539 -110.156 -117.135 -126.905 -137.73 -148.56 -159.397 -166.986 -177.363 -182.561 -187.614 -192.299 -193.328 -207.44 -216.9 -218.466 -210.811 -204.29 -204.91 -205.546 -206.197 -206.865 -207.378 -208.546 -211.045 -213.544 -216.041 -217.346 -216.849 -214.72 -212.049 -208.121 -205.511 -203.214 -200.899 -198.61 -196.313 -194.798 -188.861 -181.983 -175.102 -168.219 -161.613 -157.113 -152.57 -148.027 -143.485 -139.519 -137.424 -135.81 -134.193 -132.674 -131.214 -131.212 -131.21 -131.208 -131.206 -131.205 -131.638 -129.419 -127.23 -125.074 -121.338 -118.152 -115.577 -113.034 -110.525 -106.551 -110.555 -113.016 -106.855 -100.864 -95.8381 -95.7782 -95.7183 -95.6583 -95.5984 -95.5317 -95.1278 -94.733 -94.3382 -93.9435 -93.7762 -91.5192 -89.2744 -87.0423 -84.8238 -80.8017 -78.574 -76.3393 -74.0978 -71.8495 -70.0299 -68.7619 -67.6839 -66.6174 -65.5625 -63.9422 -61.4347 -59.005 -56.6592 -54.5153 -52.6176 -52.3062 -51.9918 -51.6769 -51.3624 -51.0837 -49.7144 -48.3625 -47.0269 -45.7981 -44.8829 -44.1786 -43.6334 -43.4064 -42.5546 -41.5512 -41.2212 -40.8225 -39.7806 -38.8502 -37.4602 -36.2482 -35.2869 -34.2502 -33.1855 -32.1096 -32.0255 -31.9637 -31.9017 -31.8397 -31.7809 -31.0489 -30.325 -29.5982 -28.8488 -28.0437 -27.7466 -27.7551 -27.7693 -27.8775 -28.1347 -29.8497 -30.2146 -29.4079 -28.4921 -27.2698 -27.0158 -26.7157 -26.4284 -26.1445 -25.8124 -25.8424 -25.8551 -25.8694 -25.8804 -25.8054 -25.9363 -26.0653 -26.215 -26.3649 -26.5574 -26.7046 -26.8513 -26.9975 -27.1433 -27.3435 -27.2915 -27.2228 -27.154 -27.085 -27.0483 -26.3384 -25.8777 -25.4142 -24.9476 -25.1055 -24.3116 -24.1113 -23.9937 -23.1903 -22.8762 -21.9929 -21.4162 -20.6701 -19.9234 -19.4895 -18.8247 -18.2675 -17.7103 -17.1559 -16.7311 -16.0095 -15.4273 -14.8418 -14.2563 -13.834 -13.0838 -12.4915 -11.8993 -11.311 -10.8946 -10.1919 -9.65033 -9.10843 -8.56656 -8.19723 -7.57552 -7.1083 -6.64109 -6.1737 -5.85582 -5.32304 -4.93306 -4.54284 -4.15264 -3.90966 -3.45494 -3.14524 -2.83556 -2.52592 -2.37351 -1.99096 -1.74637 -1.50188 -1.25742 -1.14872 -0.823574 -0.612253 -0.400954 -0.189676 -0.0969259 0.202069 0.390359 0.578643 0.765855 0.841398 1.10266 1.26187 1.42113 1.58042 1.64192 1.86206 1.99358 2.12512 2.25668 2.30315 2.4947 2.59982 2.70496 2.81011 2.82913 3.01577 3.10267 3.18962 3.27661 3.27502 3.4512 3.53011 3.60908 3.68811 3.66267 3.82366 3.88549 3.94739 4.00937 3.96889 4.10411 4.14083 4.17762 4.21447 4.15137 4.25232 4.27529 4.29833 4.32144 4.2617 4.35935 4.3805 4.40169 4.42293 4.35558 4.4254 4.43938 4.45342 4.4675 4.41275 4.47633 4.47914 4.48198 4.48485 4.41139 4.44144 4.43376 4.4261 4.41849 4.3594 4.38805 4.3727 4.35737 4.34207 4.26834 4.26622 4.24357 4.22095 4.19836 4.14022 4.14094 4.11254 4.08416 4.05579 3.98209 3.9614 3.92925 3.89712 3.86501 3.8084 3.79463 3.76092 3.72721 3.69353 3.62743 3.59839 3.56347 3.52857 3.49369 3.44379 3.42004 3.3838 3.34758 3.31136 3.25352 3.21837 3.18103 3.1437 3.10639 3.05786 3.02984 2.99214 2.95445 2.91677 2.86441 2.82903 2.79112 2.75322 2.71533 2.67106 2.63906 2.60133 2.56362 2.52591 2.47971 2.44889 2.41247 2.37606 2.33967 2.29802 2.26917 2.23507 2.20098 2.1669 2.12874 2.10201 2.07024 2.03848 2.00672 1.97228 1.94528 1.91549 1.88572 1.85596 1.82318 1.79902 1.77097 1.74293 1.7149 1.68396 1.66068 1.63423 1.60778 1.58134 1.55397 1.53186 1.50685 1.48185 1.45686 1.43048 1.40842 1.38465 1.36088 1.33713 1.31277 1.29499 1.27269 1.25039 1.22809 1.20383 1.18564 1.16508 1.14452 1.124 1.10389 1.08949 1.07056 1.05159 1.03263 1.01272 0.996272 0.978512 0.960757 0.943076 0.926807 0.913706 0.897036 0.880294 0.863556 0.845278 0.83164 0.816097 0.800559 0.785132 0.771198 0.760929 0.747156 0.73327 0.719388 0.704708 0.693474 0.681113 0.668756 0.656559 0.645564 0.639253 0.62839 0.617348 0.60631 0.593975 0.585912 0.576208 0.566506 0.557044 0.549457 0.546157 0.538063 0.529722 0.521385 0.512274 0.50607 0.498784 0.4915 0.484501 0.479482 0.477859 0.471428 0.464701 0.457976 0.450071 0.445391 0.439248 0.433108 0.427309 0.424114 0.423507 0.418405 0.412951 0.407499 0.40126 0.397205 0.392124 0.387045 0.382365 0.380167 0.380884 0.376618 0.371939 0.367261 0.361554 0.358927 0.355046 0.351167 0.347733 0.346966 0.349075 0.346456 0.343405 0.340356 0.336578 0.334819 0.332146 0.329475 0.327254 0.327759 0.329783 0.327452 0.324665 0.321879 0.3182 0.316346 0.31343 0.310515 0.308087 0.308477 0.31074 0.308726 0.306229 0.303733 0.300579 0.299227 0.297073 0.294919 0.293267 0.294237 0.297133 0.295611 0.293574 0.291538 0.288752 0.287952 0.28627 0.284589 0.283465 0.285255 0.289154 0.288654 0.287604 0.286555 0.284931 0.28499 0.284358 0.283727 0.283638 0.286265 0.290179 0.289938 0.289154 0.288371 0.286953 0.286834 0.285979 0.285125 0.284831 0.287398 0.291088 0.290858 0.290077 0.289298 0.288009 0.287439 0.286272 0.285105 0.284499 0.286606 0.289546 0.288523 0.286932 0.285341 0.283214 0.282333 0.280836 0.279341 0.278423 0.280286 0.283379 0.28271 0.281483 0.280255 0.278587 0.277791 0.276486 0.275182 0.274429 0.276313 0.278427 0.277027 0.275082 0.273137 0.270735 0.268492 0.265733 0.262975 0.260763 0.261136 0.261843 0.259252 0.256137 0.253023 0.249525 0.246439 0.242918 0.239397 0.236386 0.235703 0.235256 0.231585 0.227396 0.223206 0.218632 0.214476 0.209891 0.205306 0.201268 0.199747 0.198817 0.194717 0.190094 0.18547 0.180517 0.176072 0.171258 0.166443 0.16211 0.159937 0.157616 0.152489 0.146895 0.141302 0.135378 0.129365 0.122988 0.116612 0.110693 0.106823 0.102665 0.0960404 0.0889989 0.0819576 0.0746248 0.0668088 0.0586736 0.0505386 0.0427812 0.0366443 0.0296948 0.0206815 0.0113245 0.00196766 -0.00767449 -0.0173309 -0.027294 -0.037257 -0.0469125 -0.0552951 -0.0636955 -0.0736712 -0.0839017 -0.0941321 -0.104619 -0.114168 -0.123988 -0.133807 -0.14339 -0.152038 -0.160135 -0.170006 -0.180179 -0.190351 -0.200779 -0.208064 -0.21562 -0.223175 -0.230161 -0.234558 -0.239556 -0.24846 -0.258089 -0.267717 -0.277658 -0.238662 -0.199968 -0.161275 -0.122749 -0.0854288 -0.027786 0.0289615 0.0857093 0.13771 0.167659 0.194301 0.220436 0.24657 0.272705 0.310694 0.364384 0.417123 0.469863 0.522603 0.625667 0.415604 0.183878 -0.0478473 -0.279573 -0.511575 -0.57322 -0.634802 -0.696383 -0.757964 -0.809876 -0.879229 -0.949117 -1.019 -1.08889 -1.07605 -1.13037 -1.18448 -1.23859 -1.29269 -1.33439 -0.867043 -0.399647 0.0677488 0.535145 0.946899 0.934772 0.922602 0.910432 0.898262 0.886806 0.796848 0.706873 0.616898 0.526923 0.439815 0.388344 0.336866 0.285388 0.23391 0.183945 0.156405 0.151358