# vtk DataFile Version 2.0
track0
ASCII
DATASET POLYDATA
POINTS 18854 float
-1.001 -0.05 0.0011
-1.00079 -0.05 0.0011
-1.00058 -0.0500001 0.0011
-1.00038 -0.0500001 0.0011
-1.00017 -0.0500002 0.00110001
-0.999962 -0.0500002 0.00110001
-0.98746 -0.0500028 0.00110016
-0.974958 -0.0500076 0.00109998
-0.962456 -0.0500124 0.00109981
-0.949954 -0.0500172 0.00109963
-0.937452 -0.050022 0.00109946
-0.924948 -0.0500223 0.00109968
-0.912445 -0.0500276 0.00109976
-0.899941 -0.0500329 0.00109983
-0.887437 -0.0500382 0.00109991
-0.874933 -0.0500435 0.00109998
-0.862428 -0.0500439 0.0011003
-0.849922 -0.0500499 0.00110054
-0.837416 -0.0500559 0.00110077
-0.82491 -0.050062 0.00110101
-0.812404 -0.050068 0.00110125
-0.799896 -0.0500721 0.00110156
-0.787388 -0.0500791 0.00110186
-0.774879 -0.0500861 0.00110215
-0.762371 -0.0500931 0.00110245
-0.749862 -0.0501001 0.00110275
-0.737351 -0.0501053 0.00110301
-0.724839 -0.0501137 0.00110329
-0.712327 -0.0501222 0.00110358
-0.699816 -0.0501307 0.00110386
-0.687304 -0.0501391 0.00110414
-0.674789 -0.0501402 0.00110434
-0.662273 -0.0501507 0.00110453
-0.649757 -0.0501613 0.00110472
-0.637242 -0.0501719 0.00110491
-0.624726 -0.0501824 0.0011051
-0.612206 -0.0501911 0.00110501
-0.599685 -0.0502049 0.00110498
-0.587165 -0.0502187 0.00110495
-0.574644 -0.0502325 0.00110493
-0.562124 -0.0502463 0.0011049
-0.549598 -0.0502581 0.00110434
-0.537072 -0.0502773 0.00110376
-0.524546 -0.0502965 0.00110319
-0.51202 -0.0503157 0.00110261
-0.499494 -0.0503349 0.00110204
-0.486962 -0.0503524 0.00110052
-0.47443 -0.050383 0.00109873
-0.461898 -0.0504136 0.00109694
-0.449366 -0.0504441 0.00109516
-0.436834 -0.0504746 0.00109338
-0.424293 -0.0504799 0.00108871
-0.411752 -0.050536 0.00108204
-0.399211 -0.0505918 0.00107542
-0.386669 -0.0506473 0.00106883
-0.374128 -0.0507024 0.00106229
-0.367853 -0.0507245 0.00105709
-0.361578 -0.0507796 0.00105284
-0.355302 -0.0508345 0.0010486
-0.349027 -0.0508892 0.00104439
-0.342751 -0.0509436 0.00104019
-0.336478 -0.0509805 0.00103484
-0.330205 -0.0510537 0.00103034
-0.323932 -0.0511267 0.00102587
-0.317659 -0.0511993 0.00102141
-0.311385 -0.0512716 0.00101697
-0.305109 -0.0513217 0.00101069
-0.298833 -0.0514216 0.00100508
-0.292557 -0.0515208 0.000999507
-0.286282 -0.0516195 0.000993964
-0.280004 -0.0517177 0.000988451
-0.273728 -0.0517836 0.000980904
-0.267453 -0.0519265 0.000973464
-0.261178 -0.0520682 0.000966081
-0.254904 -0.0522088 0.000958757
-0.248625 -0.0523484 0.000951484
-0.242358 -0.0524393 0.000942186
-0.236096 -0.0526664 0.000931335
-0.229833 -0.0528907 0.000920613
-0.22357 -0.0531124 0.000910018
-0.217295 -0.0533318 0.00089953
-0.211049 -0.05347 0.000887796
-0.204812 -0.0538427 0.000873392
-0.198576 -0.0542092 0.000859229
-0.192338 -0.0545696 0.000845303
-0.186067 -0.0549258 0.000831537
-0.182944 -0.0550357 0.000825739
-0.179828 -0.0552691 0.000820923
-0.176712 -0.055501 0.000816136
-0.173595 -0.0557316 0.000811378
-0.170452 -0.0559628 0.000806607
-0.167328 -0.0560811 0.000798553
-0.164212 -0.0563316 0.000795657
-0.161096 -0.0565812 0.000792771
-0.157979 -0.0568298 0.000789895
-0.154833 -0.05708 0.000787003
-0.151687 -0.057208 0.000784979
-0.14855 -0.0574888 0.000783661
-0.145413 -0.0577692 0.000782346
-0.142277 -0.0580491 0.000781032
-0.139104 -0.0583317 0.000779706
-0.135929 -0.0584724 0.000779716
-0.132767 -0.0587924 0.000780648
-0.129603 -0.0590997 0.000781702
-0.126438 -0.0593866 0.000782948
-0.123238 -0.0596572 0.00078439
-0.120026 -0.0598168 0.000786861
-0.116821 -0.0600864 0.000790954
-0.113614 -0.0603334 0.000795374
-0.110405 -0.0605592 0.000800103
-0.107188 -0.060766 0.000805138
-0.107121 -0.0607699 0.000805248
-0.107053 -0.0607739 0.000805361
-0.106985 -0.0607779 0.000805476
-0.106918 -0.0607819 0.000805592
-0.106852 -0.0607857 0.000805707
-0.103668 -0.0609731 0.000811325
-0.100486 -0.0612019 0.000819666
-0.0973055 -0.0614452 0.000827611
-0.0941261 -0.0617035 0.000835137
-0.090943 -0.0619774 0.000842234
-0.0876995 -0.0622077 0.000851509
-0.0844644 -0.0625349 0.00085874
-0.0812314 -0.0628835 0.000865373
-0.0780005 -0.06325 0.000871049
-0.0747626 -0.0636038 0.000876802
-0.0716076 -0.0637594 0.000886464
-0.0684658 -0.0640872 0.000890634
-0.0653284 -0.0644546 0.000893561
-0.0621911 -0.0648232 0.000896496
-0.0590622 -0.0651461 0.000900906
-0.0560866 -0.0652897 0.000910418
-0.0531198 -0.0655614 0.000913018
-0.0501576 -0.0658782 0.000913166
-0.0471953 -0.0661951 0.000913315
-0.0442286 -0.0664955 0.000919813
-0.041286 -0.0667511 0.000942912
-0.0383441 -0.067015 0.000949089
-0.0354025 -0.0672815 0.00094754
-0.0324608 -0.0675476 0.000945994
-0.0295169 -0.067799 0.0009542
-0.0265406 -0.0680238 0.000983639
-0.0235635 -0.0682391 0.000990494
-0.0205859 -0.0684472 0.000984868
-0.0176082 -0.0686543 0.000979271
-0.0146332 -0.0688174 0.000978286
-0.0116213 -0.0689012 0.000985989
-0.00861022 -0.0690101 0.00098208
-0.00559962 -0.0691319 0.000971912
-0.00258898 -0.0692525 0.000961839
0.000425148 -0.0693642 0.000965286
0.0034605 -0.0694567 0.000991413
0.00649686 -0.0695128 0.000994174
0.00953356 -0.0695432 0.000981302
0.0125703 -0.0695733 0.000968582
0.0156022 -0.069599 0.000969761
0.0186449 -0.0696175 0.000992701
0.0216875 -0.0695801 0.000994535
0.0247294 -0.0695093 0.000981675
0.0277714 -0.0694393 0.000968966
0.030814 -0.0693742 0.000968556
0.0338438 -0.0693216 0.000987519
0.0368718 -0.0692024 0.000988235
0.0398982 -0.0690481 0.000976567
0.0429247 -0.0688955 0.000965025
0.0459577 -0.0687782 0.000955288
0.0489758 -0.0687287 0.000949003
0.0519892 -0.0685508 0.000940824
0.0549983 -0.0683122 0.000931781
0.0580076 -0.0680757 0.000922816
0.0610275 -0.0678889 0.000913599
0.0640613 -0.0678139 0.000903744
0.0670871 -0.0675814 0.000894633
0.0701076 -0.0672875 0.00088587
0.0731284 -0.0669963 0.000877185
0.0761592 -0.0667272 0.000870431
0.0792644 -0.0665093 0.000868735
0.0823606 -0.0661885 0.000861139
0.0854534 -0.0658365 0.000851664
0.0885466 -0.065488 0.000842284
0.0916645 -0.0651621 0.000833185
0.0948247 -0.0649124 0.00082497
0.097977 -0.0645778 0.000811921
0.101128 -0.0642323 0.000798178
0.10428 -0.0638924 0.000784653
0.107455 -0.0635722 0.000771177
0.110647 -0.0634681 0.000757008
0.113827 -0.063179 0.000741459
0.117007 -0.0628993 0.000726291
0.12019 -0.0626393 0.000711711
0.123402 -0.062396 0.000697575
0.126588 -0.0622436 0.000685573
0.129771 -0.0620507 0.000673012
0.132955 -0.061872 0.000660901
0.13614 -0.0617066 0.000649223
0.13933 -0.061554 0.000637947
0.140934 -0.0614929 0.000632678
0.142538 -0.0614287 0.00062762
0.144142 -0.0613683 0.000622756
0.145746 -0.0613101 0.000617967
0.147464 -0.0612501 0.000612918
0.149005 -0.0611985 0.000608465
0.150545 -0.0611445 0.000604124
0.152086 -0.0610879 0.000599896
0.153626 -0.0610288 0.000595783
0.155168 -0.0609669 0.000591785
0.158315 -0.0608652 0.000583
0.161462 -0.0607347 0.000576405
0.164608 -0.0605941 0.000570215
0.167753 -0.0604427 0.000564445
0.170905 -0.0602792 0.000559097
0.174044 -0.0601902 0.000551767
0.177179 -0.060022 0.00054764
0.180313 -0.0598419 0.000543854
0.183447 -0.0596493 0.000540423
0.186597 -0.0594549 0.00053704
0.189732 -0.0593617 0.00053714
0.192862 -0.0591867 0.000534236
0.195993 -0.0590127 0.000531349
0.199124 -0.0588396 0.000528477
0.202269 -0.0586666 0.000525608
0.205402 -0.0585838 0.000525753
0.208532 -0.0584296 0.000522471
0.211662 -0.0582764 0.00051921
0.214793 -0.0581241 0.00051597
0.217933 -0.0579723 0.000512739
0.224191 -0.0578523 0.000504095
0.230446 -0.0576219 0.000503719
0.2367 -0.0573917 0.000503343
0.242955 -0.0571617 0.000502967
0.249221 -0.0569314 0.000502591
0.255492 -0.0568283 0.0005131
0.261762 -0.056685 0.000511396
0.268032 -0.0565422 0.000509698
0.274303 -0.0563999 0.000508005
0.280575 -0.056258 0.000506317
0.286864 -0.0562126 0.000502665
0.293152 -0.0561189 0.000500156
0.299439 -0.0560258 0.000497659
0.305727 -0.055933 0.000495175
0.312017 -0.0558408 0.000492703
0.318314 -0.0558037 0.000497492
0.324611 -0.0557332 0.000494638
0.330908 -0.0556631 0.000491801
0.337206 -0.0555934 0.00048898
0.343504 -0.0555241 0.000486174
0.349803 -0.0554976 0.000482646
0.356102 -0.055441 0.000479668
0.3624 -0.0553847 0.000476709
0.368699 -0.0553288 0.000473768
0.374999 -0.0552732 0.000470845
0.381289 -0.055251 0.000467417
0.387579 -0.0552031 0.000464541
0.393869 -0.0551554 0.000461683
0.400159 -0.055108 0.000458841
0.406449 -0.0550609 0.000456018
0.412727 -0.0550417 0.000452841
0.419004 -0.0549996 0.000450157
0.425282 -0.0549578 0.000447489
0.431559 -0.0549163 0.000444837
0.437837 -0.0548749 0.0004422
0.4441 -0.0548578 0.000439376
0.450362 -0.0548202 0.000436949
0.456625 -0.0547829 0.000434534
0.462887 -0.0547458 0.000432133
0.46915 -0.0547089 0.000429745
0.475399 -0.0546933 0.00042737
0.481649 -0.0546596 0.000425335
0.487899 -0.054626 0.000423311
0.494148 -0.0545925 0.000421296
0.500398 -0.0545593 0.00041929
0.506641 -0.0545429 0.000420912
0.512884 -0.0545119 0.000419293
0.519128 -0.0544811 0.000417681
0.525371 -0.0544504 0.000416075
0.531614 -0.0544199 0.000414475
0.537853 -0.0544063 0.000413134
0.544092 -0.0543779 0.000412034
0.550331 -0.0543496 0.000410936
0.55657 -0.0543214 0.000409842
0.562809 -0.0542933 0.00040875
0.569041 -0.0542791 0.000410515
0.575273 -0.0542528 0.000409768
0.581505 -0.0542265 0.000409023
0.587737 -0.0542002 0.00040828
0.593969 -0.054174 0.000407537
0.600195 -0.0541616 0.000407121
0.606421 -0.0541372 0.000406646
0.612647 -0.0541127 0.000406172
0.618873 -0.0540883 0.000405698
0.6251 -0.054064 0.000405225
0.631325 -0.0540516 0.000407167
0.637551 -0.0540287 0.000406908
0.643777 -0.0540059 0.00040665
0.650002 -0.053983 0.000406391
0.656228 -0.0539602 0.000406133
0.66246 -0.0539487 0.000406348
0.668691 -0.0539274 0.000406265
0.674923 -0.0539061 0.000406182
0.681154 -0.0538848 0.000406099
0.687386 -0.0538634 0.000406015
0.693627 -0.0538524 0.000406471
0.699869 -0.0538325 0.000406521
0.70611 -0.0538126 0.000406572
0.712351 -0.0537927 0.000406622
0.718593 -0.0537727 0.000406673
0.724846 -0.0537621 0.000407316
0.731099 -0.0537436 0.000407435
0.737352 -0.0537251 0.000407553
[...]
POINT_DATA 18854
 FIELD attributes 1
U 3 18854 float
19.9505 	-0.00435433 	0.000129114 19.9512 	-0.00430393 	0.000151474 19.9518 	-0.00425354 	0.000173834 19.9525 	-0.00420315 	0.000196194 19.9531 	-0.00415277 	0.000218554 19.9537 	-0.00410238 	0.000240914 19.9083 	-0.00763023 	-0.000278716 19.9083 	-0.00762901 	-0.000278671 19.9083 	-0.0076278 	-0.000278627 19.9083 	-0.00762658 	-0.000278583 19.9495 	-0.000514143 	0.000351818 19.8977 	-0.00842771 	0.000119364 19.8977 	-0.00842829 	0.000119373 19.8977 	-0.00842886 	0.000119381 19.8977 	-0.00842944 	0.000119389 19.9439 	-0.00068905 	0.000507075 19.8859 	-0.00957273 	0.000378332 19.8858 	-0.0095748 	0.000378414 19.8858 	-0.00957687 	0.000378496 19.8858 	-0.00957894 	0.000378578 19.9383 	-0.00663717 	0.00049264 19.872 	-0.0110951 	0.00047062 19.872 	-0.0110981 	0.000470746 19.872 	-0.011101 	0.000470873 19.8719 	-0.011104 	0.000470999 19.9311 	-0.00829092 	0.000421335 19.8556 	-0.0134085 	0.000450251 19.8556 	-0.013412 	0.000450366 19.8555 	-0.0134154 	0.000450482 19.8555 	-0.0134189 	0.000450598 19.9209 	-0.00167589 	0.000310575 19.8359 	-0.0167401 	0.000301596 19.8358 	-0.016743 	0.000301648 19.8358 	-0.0167459 	0.0003017 19.8358 	-0.0167488 	0.000301752 19.9126 	-0.0138443 	-0.000150461 19.8106 	-0.021815 	-4.11082e-05 19.8106 	-0.0218145 	-4.11073e-05 19.8107 	-0.021814 	-4.11063e-05 19.8107 	-0.0218135 	-4.11053e-05 19.8995 	-0.0188386 	-0.00089856 19.7741 	-0.0303292 	-0.000908891 19.7742 	-0.0303134 	-0.000908417 19.7743 	-0.0302976 	-0.000907944 19.7744 	-0.0302818 	-0.000907471 19.8792 	-0.0277769 	-0.00241258 19.7084 	-0.0481336 	-0.00281062 19.7089 	-0.0480554 	-0.00280606 19.7094 	-0.0479774 	-0.0028015 19.7099 	-0.0478994 	-0.00279695 19.8231 	-0.00844957 	-0.00738314 19.5725 	-0.0876332 	-0.0104081 19.5751 	-0.0870964 	-0.0103443 19.5777 	-0.086563 	-0.010281 19.5803 	-0.0860328 	-0.010218 19.7131 	-0.0694709 	-0.0163252 19.446 	-0.170793 	-0.0131767 19.4482 	-0.170106 	-0.0131237 19.4504 	-0.169422 	-0.0130709 19.4526 	-0.168741 	-0.0130184 19.7265 	-0.115931 	-0.016807 19.4287 	-0.226894 	-0.0139276 19.4312 	-0.225908 	-0.013867 19.4337 	-0.224926 	-0.0138068 19.4362 	-0.223949 	-0.0137468 19.7303 	-0.157653 	-0.0197561 19.4145 	-0.308861 	-0.0173457 19.4178 	-0.307148 	-0.0172494 19.421 	-0.305444 	-0.0171537 19.4242 	-0.30375 	-0.0170586 19.7307 	-0.207202 	-0.023724 19.3811 	-0.44122 	-0.0229821 19.3858 	-0.437873 	-0.0228078 19.3905 	-0.434553 	-0.0226348 19.3951 	-0.431258 	-0.0224632 19.725 	-0.286197 	-0.0292714 19.2997 	-0.699677 	-0.03344 19.3078 	-0.691619 	-0.0330549 19.3157 	-0.683657 	-0.0326744 19.3236 	-0.67579 	-0.0322983 19.7141 	-0.436041 	-0.0370338 19.2604 	-1.15116 	-0.0444861 19.2724 	-1.13248 	-0.0437643 19.2842 	-1.11412 	-0.0430546 19.2958 	-1.09606 	-0.0423568 19.7279 	-0.694208 	-0.036625 19.456 	-1.45703 	-0.0300679 19.4592 	-1.44853 	-0.0298925 19.4623 	-1.44009 	-0.0297182 19.4655 	-1.43169 	-0.0295449 19.7003 	-0.746363 	-0.0507915 19.5936 	-1.57498 	-0.0182126 19.5951 	-1.56927 	-0.0181465 19.5966 	-1.56357 	-0.0180807 19.598 	-1.5579 	-0.0180151 19.8651 	-0.808473 	-0.0127813 19.7486 	-1.7682 	-0.00829636 19.749 	-1.76523 	-0.00828243 19.7494 	-1.76227 	-0.00826853 19.7498 	-1.75931 	-0.00825465 19.9438 	-0.883366 	6.19882e-05 19.9277 	-2.01679 	0.00587563 19.936 	-1.93654 	0.00664199 19.9493 	-1.80837 	0.00785239 19.9618 	-1.68826 	0.00899478 20.0328 	-0.995099 	0.0154075 20.1541 	-1.69536 	0.0257364 20.1531 	-1.55188 	0.0277766 20.1523 	-1.41875 	0.0297068 20.1516 	-1.29523 	0.0315351 20.1503 	-1.16985 	0.0329645 20.1556 	-1.18275 	0.033664 20.1583 	-1.18371 	0.034147 20.1611 	-1.18466 	0.0346301 20.1638 	-1.18562 	0.0351132 20.1665 	-1.18656 	0.0355837 20.3328 	-1.46218 	0.0533032 20.3543 	-1.55741 	0.050844 20.3763 	-1.65517 	0.0482378 20.399 	-1.75547 	0.0454802 20.3286 	-1.44329 	0.0581304 20.6828 	-2.0917 	0.0462251 20.7514 	-2.23769 	0.0425807 20.7907 	-2.35837 	0.03652 20.7638 	-2.2687 	0.0368936 20.3722 	-1.00496 	0.0623916 21.0294 	-2.19394 	0.0279106 21.188 	-2.48155 	0.0197631 21.1919 	-2.4897 	0.019828 21.0445 	-2.17149 	0.0296614 20.4964 	-0.988922 	0.065519 21.2464 	-1.94637 	0.0186174 21.5252 	-2.30198 	0.00107826 21.5255 	-2.30236 	0.00107844 21.4265 	-2.16969 	0.0469349 21.1794 	-1.83991 	0.166259 21.5892 	-1.93674 	0.0453263 21.7731 	-1.97253 	-0.0114617 21.7702 	-1.96931 	-0.011443 21.6228 	-1.84629 	0.0602748 21.3341 	-1.61129 	0.21102 21.7399 	-1.57227 	0.0500548 21.9521 	-1.53455 	-0.0414744 21.941 	-1.52583 	-0.0412388 21.5055 	-1.17896 	-0.0071246 20.75 	-0.576963 	0.0530698 21.5582 	-0.780059 	-0.0279886 22.0096 	-0.890181 	-0.0743351 21.9887 	-0.880965 	-0.0735655 21.7919 	-0.807346 	0.0249171 21.3936 	-0.652311 	0.184149 21.8683 	-0.403857 	0.0198849 22.0846 	-0.221306 	-0.0936093 22.0576 	-0.218441 	-0.0923973 21.8323 	-0.185259 	0.00848786 21.3905 	-0.129655 	0.161274 21.8645 	0.268838 	0.013182 22.0775 	0.51375 	-0.0933349 22.0507 	0.507107 	-0.092128 21.8134 	0.466678 	-0.00293843 21.3561 	0.371074 	0.133663 21.7992 	0.858272 	0.00515277 21.9987 	1.1213 	-0.0848111 21.9751 	1.10806 	-0.0838098 21.5341 	0.832475 	-0.0691289 20.7492 	0.340505 	-0.0432102 21.4524 	1.26633 	-0.0582214 21.8012 	1.7289 	-0.0655232 21.7839 	1.71228 	-0.0648933 21.4288 	1.32525 	-0.0654004 20.6845 	0.511636 	-0.067191 21.3522 	1.64067 	-0.0642991 21.6238 	2.1035 	-0.0627351 21.6079 	2.0829 	-0.0621206 21.452 	1.90529 	-0.0478057 21.0735 	1.4786 	-0.0115121 21.3686 	2.21363 	-0.0524239 21.4566 	2.4425 	-0.0657355 21.4406 	2.41562 	-0.0650122 21.2979 	2.22609 	-0.0621566 20.8524 	1.64766 	-0.0542049 21.0941 	2.23923 	-0.0873218 21.1227 	2.31544 	-0.0921211 21.1037 	2.27625 	-0.0905618 21.0353 	2.12096 	-0.0892657 20.4133 	0.665823 	-0.0906297 20.7828 	1.88951 	-0.101623 20.7525 	1.82486 	-0.0989594 20.6837 	1.69004 	-0.0947611 20.618 	1.56135 	-0.090746 20.299 	0.971083 	-0.0764734 20.4108 	1.23664 	-0.0805332 20.3685 	1.14365 	-0.0774674 20.3284 	1.05511 	-0.0745366 20.2902 	0.970815 	-0.0717352 20.1944 	0.76995 	-0.0663288 20.1964 	0.807729 	-0.0636857 20.1715 	0.760258 	-0.0611717 20.1602 	0.731583 	-0.0601839 20.1492 	0.703598 	-0.059217 20.1378 	0.674354 	-0.0582035 20.1417 	0.706086 	-0.0567562 20.1458 	0.739099 	-0.0552872 20.1501 	0.773439 	-0.0537952 20.1546 	0.809157 	-0.0522793 20.133 	0.651102 	-0.0561967 20.1194 	0.834206 	-0.042171 20.1257 	0.899237 	-0.0395982 20.1324 	0.969177 	-0.036933 20.1397 	1.04437 	-0.034167 20.0911 	0.56972 	-0.0469228 20.102 	1.07889 	-0.0264642 20.1082 	1.15506 	-0.0242894 20.1148 	1.2364 	-0.0220255 20.1152 	1.24103 	-0.021595 19.9827 	0.59435 	0.000632941 20.0566 	1.12105 	-0.0185983 20.0562 	1.115 	-0.0184977 20.0559 	1.10897 	-0.0183978 20.0556 	1.10298 	-0.0182983 19.9636 	0.527458 	0.000922477 20.0163 	0.986026 	-0.0209819 20.0162 	0.979872 	-0.020851 20.0161 	0.973757 	-0.0207209 20.016 	0.967679 	-0.0205915 19.9984 	0.383396 	-0.0276233 19.9212 	0.733745 	-0.00119839 19.9212 	0.733197 	-0.0011975 19.9213 	0.73265 	-0.0011966 19.9213 	0.732103 	-0.00119571 19.8458 	0.326332 	0.0332563 19.9356 	0.455529 	-0.00541756 19.9358 	0.454016 	-0.00539957 19.936 	0.452508 	-0.00538164 19.9363 	0.451005 	-0.00536377 19.9831 	0.144336 	-0.0116064 19.9693 	0.297417 	-0.0079689 19.9694 	0.295932 	-0.00792912 19.9696 	0.294455 	-0.00788954 19.9697 	0.292985 	-0.00785016 19.9283 	0.117178 	0.0151576 20.003 	0.223999 	-0.00906553 20.003 	0.222714 	-0.00901353 20.0029 	0.221436 	-0.00896182 20.0029 	0.220166 	-0.00891041 20.0085 	0.0840956 	-0.0112078 20.0364 	0.180124 	-0.00947166 20.0362 	0.179012 	-0.00941322 20.0359 	0.177908 	-0.00935515 20.0357 	0.17681 	-0.00929743 20.0224 	0.0704856 	-0.0109092 20.0677 	0.153043 	-0.00917635 20.0672 	0.152101 	-0.00911988 20.0668 	0.151165 	-0.00906376 20.0664 	0.150235 	-0.00900799 20.0354 	0.0614415 	-0.0101374 20.0928 	0.134595 	-0.0085905 20.0923 	0.133797 	-0.00853959 20.0917 	0.133004 	-0.00848897 20.0912 	0.132216 	-0.00843866 20.0469 	0.0550125 	-0.00904007 20.1166 	0.120509 	-0.00779807 20.116 	0.119843 	-0.00775499 20.1153 	0.119181 	-0.00771214 20.1147 	0.118522 	-0.00766953 20.0564 	0.0501004 	-0.00762484 20.1323 	0.108738 	-0.00655316 20.1317 	0.10822 	-0.00652197 20.131 	0.107705 	-0.00649092 20.1304 	0.107192 	-0.00646002 20.0351 	0.052553 	0.00520431 20.1431 	0.0997815 	-0.00522153 20.1426 	0.0993978 	-0.00520145 20.142 	0.0990156 	-0.00518145 20.1415 	0.0986349 	-0.00516153 20.0686 	0.0436258 	-0.00431386 20.1486 	0.0916278 	-0.00355347 20.1482 	0.0913838 	-0.003544 20.1478 	0.0911404 	-0.00353456 20.1474 	0.0908976 	-0.00352515 20.0469 	0.045433 	0.00567697 20.1512 	0.0852666 	-0.0024136 20.151 	0.0851116 	-0.00240922 20.1507 	0.0849568 	-0.00240483 20.1504 	0.0848024 	-0.00240046 20.0726 	0.0397588 	-0.00134042 20.1498 	0.0791405 	-0.0015372 20.1496 	0.0790481 	-0.00153541 20.1494 	0.0789559 	-0.00153362 20.1492 	0.0788638 	-0.00153183 20.05 	0.0399365 	0.00625375 20.1465 	0.073985 	-0.000836945 20.1464 	0.073938 	-0.000836413 20.1463 	0.073891 	-0.000835882 20.1462 	0.0738441 	-0.000835351 20.0705 	0.0369616 	0.000691925 20.1404 	0.0689449 	-0.000268725 20.1404 	0.0689308 	-0.00026867 20.1403 	0.0689167 	-0.000268615 20.1403 	0.0689026 	-0.00026856 20.0677 	0.0355412 	0.00146395 20.1326 	0.0642122 	0.000163011 20.1326 	0.0642202 	0.000163031 20.1326 	0.0642282 	0.000163051 20.1327 	0.0642362 	0.000163072 20.0642 	0.0340613 	0.0020639 20.1235 	0.0595516 	0.000381229 20.1236 	0.0595689 	0.00038134 20.1236 	0.0595862 	0.000381451 20.1237 	0.0596035 	0.000381562 20.06 	0.0323543 	0.00248024 20.1139 	0.054563 	0.000421844 20.1139 	0.0545805 	0.00042198 20.114 	0.054598 	0.000422116 20.114 	0.0546156 	0.000422251 20.0556 	0.030427 	0.00281877 20.1039 	0.0496081 	0.000516385 20.104 	0.0496276 	0.000516587 20.104 	0.049647 	0.00051679 20.1041 	0.0496665 	0.000516993 20.0313 	0.0267928 	0.00581929 20.0933 	0.0447591 	0.000666166 20.0933 	0.0447817 	0.000666501 20.0934 	0.0448042 	0.000666836 20.0934 	0.0448267 	0.000667171 20.0454 	0.0263076 	0.00358634 20.0808 	0.0398231 	0.000820928 20.0808 	0.0398477 	0.000821434 20.0809 	0.0398723 	0.000821941 20.0809 	0.0398969 	0.000822448 20.0391 	0.0239137 	0.00397525 20.0661 	0.0343699 	0.000924002 20.0661 	0.0343936 	0.000924641 20.0662 	0.0344174 	0.00092528 20.0662 	0.0344412 	0.00092592 20.0315 	0.0211692 	0.00429991 20.0495 	0.0290669 	0.00101288 20.0495 	0.0290888 	0.00101364 20.0496 	0.0291108 	0.00101441 20.0496 	0.0291328 	0.00101518 20.0224 	0.0178376 	0.00464044 20.0299 	0.0221656 	0.0012798 20.0299 	0.0221867 	0.00128101 20.03 	0.0222078 	0.00128223 20.03 	0.0222289 	0.00128345 20.0112 	0.0136302 	0.00516675 20.0027 	0.0140239 	0.0017651 20.0028 	0.0140422 	0.0017674 20.0028 	0.0140606 	0.00176971 20.0028 	0.0140789 	0.00177202 19.9736 	0.0135045 	0.00586516 19.9677 	0.00331603 	0.00226885 19.9676 	0.00332156 	0.00227263 19.9676 	0.00332709 	0.00227642 19.9675 	0.00333264 	0.00228022 19.9779 	0.000476509 	0.00660189 19.9222 	-0.0110271 	0.00265007 19.9221 	-0.0110484 	0.00265518 19.9219 	-0.0110697 	0.0026603 19.9218 	-0.011091 	0.00266544 19.9245 	0.00424674 	0.00627079 19.8654 	-0.0316995 	0.00275273 19.8652 	-0.0317623 	0.00275819 19.8649 	-0.0318253 	0.00276365 19.8646 	-0.0318883 	0.00276913 19.9243 	-0.0258052 	0.00696658 19.7901 	-0.0608544 	0.00224773 19.7898 	-0.0609516 	0.00225132 19.7894 	-0.061049 	0.00225491 19.7891 	-0.0611465 	0.00225852 19.8885 	-0.0483849 	0.00509222 19.6984 	-0.10584 	-7.1024e-05 19.6984 	-0.105834 	-7.10204e-05 19.6985 	-0.105829 	-7.10169e-05 19.6985 	-0.105824 	-7.10133e-05 19.8498 	-0.081608 	-0.000223708 19.5978 	-0.170546 	-0.00713965 19.5998 	-0.169683 	-0.00710349 19.6018 	-0.168824 	-0.00706752 19.6038 	-0.167969 	-0.00703174 19.8113 	-0.132049 	-0.0101401 19.4887 	-0.29618 	-0.0193862 19.496 	-0.291952 	-0.0191095 19.5032 	-0.287787 	-0.0188368 19.5103 	-0.283682 	-0.0185681 19.773 	-0.218247 	-0.0239835 19.3746 	-0.490776 	-0.0351687 19.3923 	-0.47689 	-0.0341735 19.4094 	-0.463408 	-0.0332074 19.4261 	-0.450318 	-0.0322695 19.6646 	-0.336844 	-0.0555911 19.4611 	-0.745866 	-0.0337085 19.4695 	-0.734258 	-0.0331838 19.4778 	-0.722834 	-0.0326676 19.4859 	-0.711594 	-0.0321595 19.7115 	-0.357461 	-0.0532333 19.5693 	-0.829937 	-0.0273824 19.5752 	-0.818448 	-0.0270034 19.5811 	-0.807121 	-0.0266297 19.5869 	-0.795955 	-0.0262612 19.8341 	-0.447921 	-0.0333944 19.6536 	-0.970439 	-0.0270931 19.6588 	-0.955938 	-0.0266883 19.6639 	-0.941657 	-0.0262896 19.6689 	-0.927592 	-0.0258969 19.8895 	-0.516359 	-0.032852 19.7584 	-1.2714 	-0.0217502 19.7616 	-1.2546 	-0.0214629 19.7647 	-1.23803 	-0.0211793 19.7678 	-1.22167 	-0.0208995 19.7852 	-0.821319 	-0.0602053 19.9138 	-2.0805 	0.00781721 19.9173 	-1.93639 	0.00361271 19.9295 	-1.45367 	-0.00972761 19.9403 	-1.03588 	-0.0208496 20.1109 	-1.31305 	-0.0343818 20.1177 	-1.34823 	-0.0332246 20.1159 	-1.33882 	-0.0335028 20.1142 	-1.32943 	-0.0337802 20.1124 	-1.32005 	-0.0340567 20.1107 	-1.31092 	-0.0343261 20.2197 	-1.43723 	-0.018959 20.3336 	-1.58247 	-0.00346859 20.4528 	-1.74734 	0.0122148 20.5192 	-1.84995 	0.0204833 20.246 	-0.846178 	-0.00115563 21.0874 	-2.85967 	-0.00843961 21.0817 	-2.8446 	-0.00839513 21.076 	-2.8296 	-0.00835087 21.0703 	-2.81468 	-0.00830682 20.4369 	-0.972661 	0.0120487 22.1235 	-3.34859 	0.00823491 22.1327 	-3.363 	0.00827035 22.1419 	-3.37746 	0.00830592 22.0892 	-3.29269 	0.0102766 20.7968 	-1.21707 	0.0511101 23.0407 	-3.71447 	0.105462 24.4962 	-5.34356 	0.141601 24.4818 	-5.34535 	0.142966 22.6411 	-3.32095 	0.100716 20.9647 	-1.47351 	0.0618792 20.8057 	-1.23456 	0.0571032 20.6468 	-0.995651 	0.0523163 20.4879 	-0.756802 	0.0475187 20.329 	-0.518047 	0.0427108 19.4599 	0 	0 19.188 	-0.408415 	0.086788 19.431 	-0.426423 	0.0906146 19.675 	-0.444989 	0.09456 19.92 	-0.464123 	0.0986259 18.9903 	0 	0 20.1389 	-0.340161 	0.150028 20.2189 	-0.351237 	0.154913 20.1651 	-0.303926 	0.134047 19.7993 	-0.119913 	0.0528877 19.5652 	0 	0 19.8734 	-0.064675 	0.020318 20.1861 	-0.130635 	0.0410397 20.2485 	-0.170282 	0.0441009 20.2925 	-0.208353 	0.0458531 20.2077 	-0.120481 	0.0226972 20.3024 	-0.0992869 	0.060358 20.331 	-0.107707 	0.0626631 20.3598 	-0.116205 	0.0650148 20.3889 	-0.124784 	0.0674137 20.098 	-0.106468 	0.0421043 20.3928 	-0.0876614 	0.0760566 20.3889 	-0.0842624 	0.0775315 20.385 	-0.080812 	0.0790361 20.381 	-0.0773093 	0.0805711 20.2567 	-0.00230998 	0.0272385 20.2477 	0.098003 	0.0771071 20.2113 	0.0872243 	0.0802218 20.1751 	0.076538 	0.0834091 19.8706 	0.0444598 	0.051931 19.4138 	0 	0 19.4142 	-6.90325e-05 	0.000219092 19.4146 	-0.000138065 	0.000438184 19.415 	-0.000207096 	0.000657274 19.4154 	-0.000276128 	0.000876362 19.412 	0 	0 20.0523 	0.163658 	0.323656 19.8571 	0.17835 	0.352712 19.6634 	0.194518 	0.384687 19.4712 	0.212325 	0.419902 18.709 	0 	0 19.9505 	0.531054 	0.254456 19.9657 	0.876049 	0.274499 19.9809 	1.22184 	0.294998 19.996 	1.56834 	0.315956 20.02 	2.12566 	0.350348 19.9791 	2.75246 	0.449079 19.949 	3.24746 	0.527261 19.9762 	2.96242 	0.483207 20.002 	2.68899 	0.44092 20.0231 	2.46285 	0.405923 20.0229 	2.46021 	0.40601 20.0228 	2.45757 	0.406097 20.0226 	2.45493 	0.406184 20.0224 	2.4523 	0.406271 20.0143 	2.44692 	0.403297 20.0165 	2.44689 	0.39403 20.0106 	2.4426 	0.383129 20.0048 	2.43828 	0.372209 19.999 	2.43392 	0.361269 19.9965 	2.43205 	0.356621 19.9312 	2.42489 	0.295626 19.8558 	2.42229 	0.234706 19.7705 	2.42414 	0.173845 19.6753 	2.43036 	0.11303 19.8546 	2.1641 	0.0784165 19.8577 	2.05811 	0.084188 19.8606 	1.95362 	0.0899468 19.8635 	1.85061 	0.0956933 19.8664 	1.74905 	0.101428 19.5181 	1.55065 	0.0561882 19.7528 	1.83129 	0.0925794 19.6097 	2.05475 	0.123425 19.4668 	2.27582 	0.154212 19.3241 	2.49445 	0.184934 19.1029 	2.83021 	0.232549 18.7646 	3.33447 	0.265564 18.4276 	3.82418 	0.302327 18.1017 	4.28126 	0.34299 18.0422 	4.22956 	0.387416 17.9754 	4.00279 	0.467856 18.032 	4.09407 	0.427227 18.0028 	4.13165 	0.436685 17.9564 	4.16077 	0.455895 17.9089 	4.19179 	0.475431 17.8777 	4.20261 	0.489328 17.8752 	4.30729 	0.421764 17.8755 	4.40095 	0.353569 17.8791 	4.48278 	0.284726 18.0624 	4.25273 	0.212294 18.9143 	2.87965 	0.127494 18.3589 	4.03117 	0.118369 17.809 	5.1708 	0.109249 17.6685 	5.40978 	0.0898929 17.7489 	4.06236 	0.175482 18.0025 	2.59216 	0.233166 17.9716 	3.84926 	0.124419 17.9585 	4.77462 	0.0420901 18.0153 	4.41332 	0.0582568 18.2301 	3.92848 	0.0396914 18.4779 	2.54653 	0.0939366 18.4087 	3.51472 	0.00531207 18.5429 	3.25321 	-0.0289596 18.5931 	3.01639 	-0.0236127 18.6293 	2.79868 	-0.0138496 18.674 	2.5223 	-0.00129514 18.6688 	2.57758 	-0.00501105 18.6702 	2.56336 	-0.00406185 18.6715 	2.54923 	-0.00311785 18.6729 	2.5352 	-0.00217901 18.6741 	2.52201 	-0.00129499 18.5719 	2.67183 	0.00345072 18.4626 	2.83218 	0.00849838 18.3673 	3.00255 	0.00680203 18.3241 	3.17981 	-0.0139587 18.5077 	2.47754 	-0.0197664 18.2905 	3.57522 	-0.075997 18.1679 	3.80282 	-0.078908 18.0367 	4.04639 	-0.0820282 18.1711 	3.7064 	-0.092033 18.8536 	2.33291 	-0.0887855 18.8979 	3.23504 	-0.128367 18.7521 	3.50595 	-0.11655 18.6996 	3.2343 	-0.106619 18.6308 	2.97099 	-0.0963828 18.5243 	1.3092 	-0.0941669 18.821 	2.07869 	-0.078085 18.8801 	1.75734 	-0.063509 18.8574 	1.63419 	-0.0546999 18.835 	1.52031 	-0.0464938 18.6429 	0.954802 	-0.00226903 18.8271 	1.22528 	-0.0346175 18.8007 	1.16464 	-0.0281954 18.7741 	1.10782 	-0.0220789 18.7541 	1.04269 	-0.0159391 18.8088 	0.666244 	-0.0037124 18.8378 	0.688208 	-0.00432095 18.8338 	0.618276 	-0.00314796 18.8278 	0.60256 	-0.00142022 18.8218 	0.587324 	0.000265927 18.814 	0.568383 	0.00237666 18.8113 	0.587053 	0.00340846 18.8084 	0.606376 	0.00447339 18.8054 	0.626375 	0.00557261 18.802 	0.647074 	0.00670734 18.8222 	0.554635 	0.0133205 18.7743 	0.630917 	0.0122266 18.771 	0.673889 	0.0143134 18.7671 	0.719854 	0.0165403 18.7627 	0.76902 	0.0189173 18.8147 	0.493513 	0.0303744 18.7083 	0.811986 	0.0293257 18.709 	0.868237 	0.0307599 18.7099 	0.928229 	0.0322885 18.7109 	0.99221 	0.0339176 18.6119 	0.473471 	0.0213069 18.6915 	0.850085 	0.0291497 18.6758 	0.860312 	0.0295003 18.6598 	0.870671 	0.0298555 18.6437 	0.881163 	0.0302153 18.9631 	0.162331 	0.0814587 18.569 	0.651663 	0.0318634 18.5515 	0.659624 	0.0322527 18.5338 	0.66769 	0.032647 18.5159 	0.675862 	0.0330466 18.6007 	0.144236 	0.0232545 18.4854 	0.564895 	0.0248881 18.4717 	0.570006 	0.0251133 18.4579 	0.575168 	0.0253407 18.4439 	0.580381 	0.0255703 18.87 	0.146084 	0.0576568 18.3085 	0.525644 	0.0248302 18.2939 	0.530173 	0.0250441 18.2792 	0.534745 	0.0252601 18.2643 	0.53936 	0.0254781 18.7798 	0.149647 	0.0465242 18.0711 	0.499313 	0.029139 18.0523 	0.504178 	0.0294229 18.0333 	0.509096 	0.0297099 18.0141 	0.514067 	0.03 18.6669 	0.156613 	0.0409315 17.78 	0.47938 	0.0352246 17.7548 	0.484828 	0.0356249 17.7292 	0.490345 	0.0360303 17.7033 	0.495934 	0.036441 18.1388 	0.0853159 	-0.016156 17.473 	0.455888 	0.0402325 17.441 	0.461668 	0.0407426 17.4085 	0.467533 	0.0412601 17.3755 	0.473483 	0.0417852 18.4133 	0.168989 	0.0333791 17.0751 	0.441391 	0.0446622 17.0354 	0.447377 	0.0452678 16.9951 	0.453457 	0.0458831 16.9542 	0.459635 	0.0465082 18.2492 	0.173808 	0.0298389 16.6231 	0.426062 	0.0469659 16.5767 	0.431926 	0.0476123 16.5294 	0.437887 	0.0482693 16.4814 	0.443947 	0.0489374 17.6559 	0.0525402 	-0.0294586 16.1811 	0.395715 	0.0432351 16.1337 	0.400627 	0.0437717 16.0856 	0.405614 	0.0443166 16.0367 	0.410678 	0.0448699 17.5181 	0.0333183 	-0.0378444 15.7706 	0.343787 	0.0310591 15.7334 	0.346809 	0.0313321 15.6958 	0.349864 	0.0316081 15.6578 	0.352954 	0.0318872 17.8155 	0.155647 	-0.000127663 15.3994 	0.279166 	0.00910002 15.3877 	0.279877 	0.00912319 15.3759 	0.28059 	0.00914644 15.3871 	0.280129 	0.00908187 17.7452 	0.137292 	-0.0146068 15.3173 	0.200401 	-0.0203697 15.3729 	0.198505 	-0.0201847 15.4277 	0.196634 	-0.0200021 15.4818 	0.194787 	-0.0198219 17.767 	0.11302 	-0.027732 15.49 	0.124838 	-0.0465755 15.5463 	0.123203 	-0.0459872 15.6016 	0.121594 	-0.0454086 15.6561