# vtk DataFile Version 2.0
track0
ASCII
DATASET POLYDATA
POINTS 15780 float
-1.001 -0.05 0.0011
-1.0008 -0.05 0.0011
-1.0006 -0.05 0.0011
-1.0004 -0.05 0.0011
-1.0002 -0.05 0.0011
-1 -0.05 0.0011
-0.9875 -0.05 0.0011
-0.975 -0.05 0.0011
-0.9625 -0.05 0.0011
-0.95 -0.05 0.0011
-0.9375 -0.05 0.00109999
-0.925 -0.05 0.00109999
-0.9125 -0.05 0.00109999
-0.9 -0.05 0.00109999
-0.8875 -0.05 0.00109999
-0.875 -0.05 0.00109999
-0.8625 -0.05 0.00109999
-0.85 -0.05 0.00109999
-0.8375 -0.05 0.00109998
-0.825 -0.0500001 0.00109998
-0.8125 -0.0500001 0.00109998
-0.8 -0.0500001 0.00109998
-0.7875 -0.0500001 0.00109998
-0.775 -0.0500001 0.00109998
-0.7625 -0.0500001 0.00109998
-0.75 -0.0500001 0.00109998
-0.7375 -0.0500001 0.00109997
-0.725 -0.0500001 0.00109997
-0.7125 -0.0500001 0.00109997
-0.7 -0.0500001 0.00109997
-0.6875 -0.0500001 0.00109997
-0.675 -0.0500001 0.00109997
-0.6625 -0.0500001 0.00109997
-0.65 -0.0500001 0.00109996
-0.6375 -0.0500001 0.00109996
-0.625 -0.0500001 0.00109996
-0.6125 -0.0500001 0.00109996
-0.6 -0.0500001 0.00109996
-0.5875 -0.0500001 0.00109996
-0.575 -0.0500001 0.00109996
-0.5625 -0.0500001 0.00109996
-0.55 -0.0500001 0.00109995
-0.5375 -0.0500001 0.00109995
-0.525 -0.0500001 0.00109995
-0.5125 -0.0500001 0.00109995
-0.5 -0.0500001 0.00109995
-0.4875 -0.0500001 0.00109995
-0.475 -0.0500001 0.00109995
-0.4625 -0.0500001 0.00109994
-0.45 -0.0500002 0.00109994
-0.4375 -0.0500002 0.00109994
-0.425 -0.0500002 0.00109994
-0.4125 -0.0500002 0.00109994
-0.4 -0.0500002 0.00109994
-0.3875 -0.0500002 0.00109994
-0.375 -0.0500002 0.00109994
-0.3625 -0.0500002 0.00109993
-0.35 -0.0500002 0.00109993
-0.3375 -0.0500002 0.00109993
-0.325 -0.0500002 0.00109993
-0.3125 -0.0500002 0.00109993
-0.3 -0.0500002 0.00109993
-0.2875 -0.0500002 0.00109993
-0.275 -0.0500002 0.00109993
-0.2625 -0.0500002 0.00109992
-0.25 -0.0500002 0.00109992
-0.2375 -0.0500002 0.00109992
-0.225 -0.0500002 0.00109992
-0.2125 -0.0500002 0.00109992
-0.2 -0.0500002 0.00109992
-0.1875 -0.0500002 0.00109992
-0.175 -0.0500002 0.00109992
-0.1625 -0.0500002 0.00109991
-0.15 -0.0500002 0.00109991
-0.1375 -0.0500002 0.00109991
-0.125 -0.0500002 0.00109991
-0.1125 -0.0500002 0.00109991
-0.1 -0.0500002 0.00109991
-0.0875 -0.0500002 0.00109991
-0.075 -0.0500002 0.00109991
-0.0625 -0.0500002 0.00109991
-0.05 -0.0500003 0.00109991
-0.0375 -0.0500003 0.0010999
-0.025 -0.0500003 0.0010999
-0.0125 -0.0500003 0.0010999
2.10607e-13 -0.0500003 0.0010999
0.0125 -0.0500003 0.0010999
0.025 -0.0500003 0.0010999
0.0375 -0.0500003 0.0010999
0.05 -0.0500003 0.0010999
0.0625 -0.0500003 0.0010999
0.075 -0.0500003 0.0010999
0.0875 -0.0500003 0.0010999
0.1 -0.0500003 0.00109989
0.1125 -0.0500003 0.00109989
0.125 -0.0500003 0.00109989
0.1375 -0.0500003 0.00109989
0.15 -0.0500003 0.00109989
0.1625 -0.0500003 0.00109989
0.175 -0.0500003 0.00109989
0.1875 -0.0500003 0.00109989
0.2 -0.0500003 0.00109989
0.2125 -0.0500003 0.00109989
0.225 -0.0500003 0.00109989
0.2375 -0.0500003 0.00109989
0.25 -0.0500003 0.00109989
0.2625 -0.0500003 0.00109988
0.275 -0.0500003 0.00109988
0.2875 -0.0500003 0.00109988
0.3 -0.0500003 0.00109988
0.3125 -0.0500003 0.00109988
0.325 -0.0500003 0.00109988
0.3375 -0.0500003 0.00109988
0.35 -0.0500003 0.00109988
0.3625 -0.0500003 0.00109988
0.375 -0.0500003 0.00109988
0.3875 -0.0500003 0.00109988
0.4 -0.0500004 0.00109988
0.4125 -0.0500004 0.00109988
0.425 -0.0500004 0.00109988
0.4375 -0.0500004 0.00109988
0.45 -0.0500004 0.00109988
0.4625 -0.0500004 0.00109988
0.475 -0.0500004 0.00109988
0.4875 -0.0500004 0.00109988
0.5 -0.0500004 0.00109988
0.5125 -0.0500004 0.00109988
0.525 -0.0500004 0.00109988
0.5375 -0.0500004 0.00109988
0.55 -0.0500004 0.00109988
0.5625 -0.0500004 0.00109988
0.575 -0.0500004 0.00109987
0.5875 -0.0500004 0.00109987
0.6 -0.0500004 0.00109987
0.6125 -0.0500004 0.00109987
0.625 -0.0500004 0.00109987
0.6375 -0.0500004 0.00109987
0.65 -0.0500004 0.00109987
0.6625 -0.0500004 0.00109987
0.675 -0.0500004 0.00109987
0.6875 -0.0500004 0.00109987
0.7 -0.0500004 0.00109987
0.7125 -0.0500004 0.00109987
0.725 -0.0500004 0.00109987
0.7375 -0.0500004 0.00109987
0.75 -0.0500004 0.00109987
0.7625 -0.0500004 0.00109987
0.775 -0.0500004 0.00109987
0.7875 -0.0500004 0.00109987
0.8 -0.0500004 0.00109987
0.8125 -0.0500004 0.00109987
0.825 -0.0500004 0.00109987
0.8375 -0.0500004 0.00109987
0.85 -0.0500004 0.00109987
0.8625 -0.0500004 0.00109987
0.875 -0.0500004 0.00109987
0.8875 -0.0500004 0.00109987
0.9 -0.0500004 0.00109987
0.9125 -0.0500005 0.00109988
0.925 -0.0500005 0.00109988
0.9375 -0.0500005 0.00109988
0.95 -0.0500005 0.00109988
0.9625 -0.0500005 0.00109988
0.975 -0.0500005 0.00109988
0.9875 -0.0500005 0.00109988
1 -0.0500005 0.00109988
1.0125 -0.0500005 0.00109988
1.025 -0.0500005 0.00109988
1.0375 -0.0500005 0.00109988
1.05 -0.0500005 0.00109988
1.0625 -0.0500005 0.00109988
1.075 -0.0500005 0.00109988
1.0875 -0.0500005 0.00109988
1.1 -0.0500005 0.00109988
1.1125 -0.0500005 0.00109988
1.125 -0.0500005 0.00109988
1.1375 -0.0500005 0.00109988
1.15 -0.0500005 0.00109988
1.1625 -0.0500005 0.00109988
1.175 -0.0500005 0.00109988
1.1875 -0.0500005 0.00109988
1.2 -0.0500005 0.00109988
1.2125 -0.0500005 0.00109988
1.225 -0.0500005 0.00109988
1.2375 -0.0500005 0.00109989
1.25 -0.0500005 0.00109989
1.2625 -0.0500005 0.00109989
1.275 -0.0500005 0.00109989
1.2875 -0.0500005 0.00109989
1.3 -0.0500005 0.00109989
1.3125 -0.0500005 0.00109989
1.325 -0.0500005 0.00109989
1.3375 -0.0500005 0.00109989
1.35 -0.0500005 0.00109989
1.3625 -0.0500005 0.00109989
1.375 -0.0500005 0.00109989
1.3875 -0.0500005 0.00109989
1.4 -0.0500005 0.00109989
1.4125 -0.0500005 0.00109989
1.425 -0.0500005 0.00109989
1.4375 -0.0500005 0.0010999
1.45 -0.0500005 0.0010999
1.4625 -0.0500005 0.0010999
1.475 -0.0500005 0.0010999
1.4875 -0.0500005 0.0010999
1.5 -0.0500006 0.0010999
1.5125 -0.0500006 0.0010999
1.525 -0.0500006 0.0010999
1.5375 -0.0500006 0.0010999
1.55 -0.0500006 0.0010999
1.5625 -0.0500006 0.0010999
1.575 -0.0500006 0.0010999
1.5875 -0.0500006 0.0010999
1.6 -0.0500006 0.0010999
1.6125 -0.0500006 0.00109991
1.625 -0.0500006 0.00109991
1.6375 -0.0500006 0.00109991
1.65 -0.0500006 0.00109991
1.6625 -0.0500006 0.00109991
1.675 -0.0500006 0.00109991
1.6875 -0.0500006 0.00109991
1.7 -0.0500006 0.00109991
1.7125 -0.0500006 0.00109991
1.725 -0.0500006 0.00109991
1.7375 -0.0500006 0.00109991
1.75 -0.0500006 0.00109991
1.7625 -0.0500006 0.00109992
1.775 -0.0500006 0.00109992
1.7875 -0.0500006 0.00109992
1.8 -0.0500006 0.00109992
1.8125 -0.0500006 0.00109992
1.825 -0.0500006 0.00109992
1.8375 -0.0500006 0.00109992
1.85 -0.0500006 0.00109992
1.8625 -0.0500006 0.00109992
1.875 -0.0500006 0.00109992
1.8875 -0.0500006 0.00109992
1.9 -0.0500006 0.00109992
1.9125 -0.0500006 0.00109993
1.925 -0.0500006 0.00109993
1.9375 -0.0500006 0.00109993
1.95 -0.0500006 0.00109993
1.9625 -0.0500006 0.00109993
1.975 -0.0500006 0.00109993
1.9875 -0.0500006 0.00109993
2 -0.0500006 0.00109993
2.0125 -0.0500006 0.00109993
2.025 -0.0500006 0.00109993
2.0375 -0.0500006 0.00109993
2.05 -0.0500006 0.00109993
2.0625 -0.0500006 0.00109993
2.075 -0.0500006 0.00109994
2.0875 -0.0500006 0.00109994
2.1 -0.0500006 0.00109994
2.1125 -0.0500006 0.00109994
2.125 -0.0500006 0.00109994
2.1375 -0.0500006 0.00109994
2.15 -0.0500006 0.00109994
2.1625 -0.0500006 0.00109994
2.175 -0.0500007 0.00109994
2.1875 -0.0500007 0.00109994
2.2 -0.0500007 0.00109994
2.2125 -0.0500007 0.00109994
2.225 -0.0500007 0.00109995
2.2375 -0.0500007 0.00109995
2.25 -0.0500007 0.00109995
2.2625 -0.0500007 0.00109995
2.275 -0.0500007 0.00109995
2.2875 -0.0500007 0.00109995
2.3 -0.0500007 0.00109995
2.3125 -0.0500007 0.00109995
2.325 -0.0500007 0.00109995
2.3375 -0.0500007 0.00109995
2.35 -0.0500007 0.00109995
2.3625 -0.0500007 0.00109995
2.375 -0.0500007 0.00109995
2.3875 -0.0500007 0.00109996
2.4 -0.0500007 0.00109996
2.4125 -0.0500007 0.00109996
2.425 -0.0500007 0.00109996
2.4375 -0.0500007 0.00109996
2.45 -0.0500007 0.00109996
2.4625 -0.0500007 0.00109996
2.475 -0.0500007 0.00109996
2.4875 -0.0500007 0.00109996
2.5 -0.0500007 0.00109996
2.5125 -0.0500007 0.00109996
2.525 -0.0500007 0.00109996
2.5375 -0.0500007 0.00109996
2.55 -0.0500007 0.00109996
2.5625 -0.0500007 0.00109997
2.575 -0.0500007 0.00109997
2.5875 -0.0500007 0.00109997
2.6 -0.0500007 0.00109997
2.6125 -0.0500007 0.00109997
2.625 -0.0500007 0.00109997
2.6375 -0.0500007 0.00109997
2.65 -0.0500007 0.00109997
2.6625 -0.0500007 0.00109997
2.675 -0.0500007 0.00109997
2.6875 -0.0500007 0.00109997
2.7 -0.0500007 0.00109997
2.7125 -0.0500007 0.00109997
2.725 -0.0500007 0.00109997
2.7375 -0.0500007 0.00109997
2.75 -0.0500007 0.00109997
2.7625 -0.0500007 0.00109998
2.775 -0.0500007 0.00109998
2.7875 -0.0500007 0.00109998
2.8 -0.0500007 0.00109998
2.8125 -0.0500007 0.00109998
2.825 -0.0500007 0.00109998
2.8375 -0.0500007 0.00109998
2.85 -0.0500007 0.00109998
2.8625 -0.0500008 0.00109998
2.875 -0.0500008 0.00109998
2.8875 -0.0500008 0.00109998
2.9 -0.0500008 0.00109998
2.9125 -0.0500008 0.00109998
2.925 -0.0500008 0.00109998
2.9375 -0.0500008 0.00109998
2.95 -0.0500008 0.00109998
2.9625 -0.0500008 0.00109998
2.975 -0.0500008 0.00109998
2.9875 -0.0500008 0.00109998
3 -0.0500008 0.00109998
3.0125 -0.0500008 0.00109999
3.025 -0.0500008 0.00109999
3.0375 -0.0500008 0.00109999
3.05 -0.0500008 0.00109999
3.0625 -0.0500008 0.00109999
3.075 -0.0500008 0.00109999
3.0875 -0.0500008 0.00109999
3.1 -0.0500008 0.00109999
3.1125 -0.0500008 0.00109999
3.125 -0.0500008 0.00109999
3.1375 -0.0500008 0.00109999
3.15 -0.0500008 0.00109999
3.1625 -0.0500008 0.00109999
3.175 -0.0500008 0.00109999
3.1875 -0.0500008 0.00109999
3.2 -0.0500008 0.00109999
3.2125 -0.0500008 0.00109999
3.225 -0.0500008 0.00109999
3.2375 -0.0500008 0.00109999
3.25 -0.0500008 0.00109999
3.2625 -0.0500008 0.00109999
3.275 -0.0500008 0.00109999
3.2875 -0.0500008 0.00109999
3.3 -0.0500008 0.00109999
3.3125 -0.0500008 0.00109999
3.325 -0.0500008 0.00109999
3.3375 -0.0500008 0.00109999
3.35 -0.0500008 0.0011
3.3625 -0.0500008 0.0011
[...]
POINT_DATA 15780
 FIELD attributes 2
p 1 15780 float
-0.0310979 -0.031114 -0.03113 -0.0311461 -0.0311621 -0.0311782 -0.0321096 -0.0330334 -0.0339571 -0.0348808 -0.0359012 -0.0369651 -0.0380314 -0.0390978 -0.0401641 -0.0411838 -0.0421673 -0.0431321 -0.0440968 -0.0450616 -0.0459748 -0.0468726 -0.0477751 -0.0486777 -0.0495802 -0.050477 -0.0513775 -0.052279 -0.0531805 -0.054082 -0.0549829 -0.0558904 -0.0567983 -0.0577062 -0.0586142 -0.0595217 -0.0604212 -0.0613187 -0.0622162 -0.0631137 -0.0640083 -0.0648873 -0.0657645 -0.0666417 -0.0675188 -0.0683938 -0.0692512 -0.0701065 -0.0709618 -0.0718171 -0.0726705 -0.0735051 -0.0743372 -0.0751692 -0.0760013 -0.076831 -0.0776392 -0.0784444 -0.0792496 -0.0800547 -0.080857 -0.0816351 -0.0824094 -0.0831837 -0.0839579 -0.0847286 -0.0854727 -0.0862127 -0.0869526 -0.0876926 -0.0884286 -0.089136 -0.0898385 -0.0905411 -0.0912436 -0.0919416 -0.0926089 -0.093271 -0.0939332 -0.0945954 -0.0952525 -0.095877 -0.0964958 -0.0971147 -0.0977335 -0.0983468 -0.0989257 -0.0994989 -0.100072 -0.100645 -0.101213 -0.101745 -0.102271 -0.102798 -0.103324 -0.103844 -0.104328 -0.104806 -0.105284 -0.105761 -0.106233 -0.106667 -0.107094 -0.10752 -0.107947 -0.108366 -0.108747 -0.10912 -0.109493 -0.109865 -0.110231 -0.110555 -0.110872 -0.111189 -0.111506 -0.111816 -0.112084 -0.112344 -0.112604 -0.112864 -0.113117 -0.113327 -0.11353 -0.113732 -0.113935 -0.11413 -0.114282 -0.114426 -0.11457 -0.114714 -0.11485 -0.114943 -0.115028 -0.115114 -0.115199 -0.115277 -0.115313 -0.115342 -0.115371 -0.115399 -0.115421 -0.115402 -0.115377 -0.115352 -0.115326 -0.115293 -0.115223 -0.115145 -0.115067 -0.11499 -0.114905 -0.114782 -0.114653 -0.114523 -0.114394 -0.114257 -0.114083 -0.113902 -0.11372 -0.113539 -0.113351 -0.113127 -0.112897 -0.112666 -0.112436 -0.112198 -0.111928 -0.111651 -0.111374 -0.111097 -0.110814 -0.110499 -0.110179 -0.109858 -0.109537 -0.10921 -0.108854 -0.108491 -0.108129 -0.107766 -0.107397 -0.107001 -0.106599 -0.106197 -0.105795 -0.105387 -0.104954 -0.104516 -0.104077 -0.103639 -0.103195 -0.102729 -0.102258 -0.101788 -0.101318 -0.100843 -0.100348 -0.0998503 -0.0993522 -0.0988542 -0.098352 -0.0978331 -0.0973107 -0.0967882 -0.0962658 -0.0957395 -0.0951986 -0.0946542 -0.0941098 -0.0935655 -0.0930174 -0.0924564 -0.0918927 -0.0913289 -0.0907651 -0.0901982 -0.0896205 -0.0890403 -0.0884601 -0.0878799 -0.0872968 -0.0867054 -0.086112 -0.0855186 -0.0849252 -0.0843295 -0.0837277 -0.0831241 -0.0825206 -0.0819171 -0.0813115 -0.0807018 -0.080091 -0.0794802 -0.0788694 -0.0782571 -0.0776427 -0.0770273 -0.0764119 -0.0757965 -0.0751798 -0.0745628 -0.0739454 -0.073328 -0.0727106 -0.0720925 -0.0714757 -0.0708587 -0.0702417 -0.0696247 -0.0690072 -0.0683926 -0.0677783 -0.0671639 -0.0665496 -0.0659352 -0.0653252 -0.0647155 -0.0641058 -0.0634961 -0.0628865 -0.0622825 -0.0616793 -0.0610761 -0.0604729 -0.0598702 -0.0592743 -0.0586793 -0.0580843 -0.0574892 -0.0568949 -0.0563084 -0.0557231 -0.0551378 -0.0545526 -0.0539683 -0.0533929 -0.0528188 -0.0522446 -0.0516705 -0.0510975 -0.0505341 -0.0499724 -0.0494106 -0.0488488 -0.0482885 -0.0477385 -0.0471901 -0.0466417 -0.0460934 -0.0455465 -0.0450106 -0.0444765 -0.0439425 -0.0434085 -0.0428762 -0.0423553 -0.0418364 -0.0413174 -0.0407985 -0.0402814 -0.039776 -0.0392728 -0.0387696 -0.0382664 -0.0377652 -0.0372761 -0.0367891 -0.0363022 -0.0358152 -0.0353303 -0.0348576 -0.0343873 -0.0339169 -0.0334466 -0.0329784 -0.0325227 -0.0320692 -0.0316157 -0.0311623 -0.030711 -0.0302722 -0.0298358 -0.0293994 -0.028963 -0.0285289 -0.0281072 -0.0276878 -0.0272685 -0.0268492 -0.0264322 -0.0260276 -0.0256253 -0.0252231 -0.0248209 -0.024421 -0.0240335 -0.0236484 -0.0232633 -0.0228782 -0.0224955 -0.0221251 -0.0217572 -0.0213893 -0.0210214 -0.020656 -0.0203028 -0.019952 -0.0196013 -0.0192506 -0.0189021 -0.0185655 -0.0182315 -0.0178975 -0.0175634 -0.0172319 -0.0169115 -0.0165936 -0.0162757 -0.0159578 -0.0156424 -0.0153378 -0.0150355 -0.0147332 -0.0144309 -0.0141311 -0.0138417 -0.0135547 -0.0132676 -0.0129806 -0.012696 -0.0124218 -0.0121497 -0.0118776 -0.0116055 -0.0113357 -0.011076 -0.0108185 -0.0105611 -0.0103036 -0.0100484 -0.00980314 -0.00955999 -0.00931683 -0.00907368 -0.00883273 -0.00860125 -0.00837182 -0.00814239 -0.00791296 -0.00768561 -0.00746725 -0.00725101 -0.00703476 -0.00681852 -0.00660435 -0.00639882 -0.00619533 -0.00599183 -0.00578834 -0.00558684 -0.00539362 -0.00520251 -0.00501139 -0.00482028 -0.00463127 -0.00445023 -0.00427129 -0.00409236 -0.00391343 -0.00373654 -0.00356731 -0.00340013 -0.00323295 -0.00306577 -0.00290063 -0.00274258 -0.00258641 -0.00243024 -0.00227406 -0.00211992 -0.00197241 -0.00182643 -0.00168045 -0.00153447 -0.00139027 -0.00125231 -0.00111595 -0.000979592 -0.000843234 -0.000708651 -0.000579978 -0.000452913 -0.000325849 -0.000198785 -7.33662e-05 4.63007e-05 0.000164352 0.000282404 0.000400455 0.000516888 0.000627874 0.000737274 0.000846674 0.000956074 0.00106385 0.00116658 0.00126777 0.00136896 0.00147015 0.00156975 0.00166464 0.00175808 0.00185151 0.00194494 0.00203686 0.0021244 0.0022105 0.00229661 0.00238271 0.00246734 0.00254784 0.00262701 0.00270619 0.00278536 0.00286313 0.00293707 0.00300969 0.00308232 0.00315494 0.00322617 0.00329387 0.00336032 0.00342677 0.00349322 0.00355837 0.00362022 0.00368086 0.00374149 0.00380213 0.00386148 0.0039178 0.00397298 0.00402816 0.00408334 0.0041373 0.0041885 0.00423855 0.00428861 0.00433866 0.00438752 0.00443382 0.00447905 0.00452428 0.00456952 0.00461362 0.00465538 0.00469609 0.00473679 0.00477749 0.00481708 0.00485453 0.004891 0.00492746 0.00496393 0.00499934 0.00503284 0.00506535 0.00509785 0.00513036 0.00516182 0.00519156 0.00522037 0.00524918 0.00527799 0.00530584 0.00533211 0.00535747 0.00538284 0.0054082 0.0054326 0.00545561 0.00547776 0.00549992 0.00552208 0.00554333 0.00556336 0.00558255 0.00560173 0.00562092 0.0056392 0.00565642 0.00567286 0.00568929 0.00570572 0.00572132 0.00573599 0.00574988 0.00576377 0.00577766 0.00579072 0.00580298 0.00581453 0.00582607 0.00583761 0.00584838 0.00585848 0.00586785 0.00587723 0.00588661 0.00589521 0.00590328 0.00591067 0.00591806 0.00592546 0.00593213 0.00593838 0.00594395 0.00594952 0.0059551 0.00595996 0.0059645 0.00596841 0.00597233 0.00597625 0.00597949 0.00598253 0.00598494 0.00598735 0.00598976 0.0059915 0.00599313 0.00599417 0.00599522 0.00599626 0.00599667 0.00599706 0.00599687 0.00599667 0.00599647 0.00599564 0.00599488 0.00599357 0.00599226 0.00599095 0.00598906 0.00598732 0.00598503 0.00598274 0.00598045 0.00597757 0.00597492 0.00597175 0.00596858 0.00596541 0.00596169 0.00595826 0.00595432 0.00595037 0.00594643 0.00594194 0.00593781 0.0059332 0.00592859 0.00592398 0.00591885 0.00591416 0.00590899 0.00590381 0.00589863 0.00589294 0.00588776 0.00588211 0.00587646 0.00587081 0.00586468 0.00585911 0.00585308 0.00584705 0.00584102 0.00583451 0.00582861 0.00582228 0.00581595 0.00580962 0.00580283 0.00579672 0.00579017 0.00578362 0.00577708 0.00577007 0.0057638 0.00575711 0.00575042 0.00574373 0.00573661 0.00573027 0.00572351 0.00571676 0.00571 0.00570281 0.00569646 0.00568971 0.00568296 0.0056762 0.00566904 0.00566276 0.00565607 0.00564939 0.00564271 0.00563562 0.00562947 0.00562292 0.00561638 0.00560983 0.00560289 0.00559693 0.00559059 0.00558424 0.00557789 0.00557116 0.00556546 0.00555937 0.00555328 0.00554719 0.00554072 0.00553532 0.00552955 0.00552377 0.005518 0.00551185 0.00550682 0.0055014 0.00549599 0.00549057 0.00548478 0.00548015 0.00547513 0.00547012 0.0054651 0.00545973 0.00545553 0.00545094 0.00544635 0.00544176 0.00543679 0.00543301 0.00542884 0.00542467 0.0054205 0.00541596 0.00541257 0.00540875 0.00540494 0.00540113 0.00539692 0.00539372 0.00539007 0.00538642 0.00538278 0.00537871 0.0053753 0.00537138 0.00536746 0.00536355 0.00535914 0.00535423 0.0053485 0.00534278 0.00533705 0.00533053 0.00532175 0.00531254 0.00530333 0.00529412 0.00528441 0.00525829 0.00522663 0.00519497 0.00516332 0.00512678 0.00511529 0.00511794 0.00512059 0.00512324 0.00514885 0.00523245 0.00530848 0.00538783 0.00545079 0.0054964 0.00548937 0.00548553 0.00548169 0.00547787 0.00547634 0.00550321 0.00553088 0.00555855 0.00557821 0.00559917 0.00561309 0.00563193 0.0056508 0.00566967 0.00568399 0.00574687 0.00581188 0.00587688 0.00594189 0.00599839 0.00608982 0.00616592 0.00624202 0.00631812 0.00632326 0.00630862 0.00628924 0.00626985 0.00625047 0.00624059 0.00603973 0.00581817 0.0055966 0.00537504 0.00504766 0.00456767 0.00407379 0.00357991 0.00308603 0.00262193 0.00235217 0.00207487 0.00179756 0.00152026 0.00127292 0.00117432 0.0010693 0.00096427 0.000859245 0.000773598 0.000667684 0.000556212 0.00044474 0.000333268 0.00025528
-0.0319473 -0.0319664 -0.0319855 -0.0320046 -0.0320237 -0.0320428 -0.0327437 -0.0336213 -0.034404 -0.0351664 -0.0362247 -0.0372614 -0.0382518 -0.0392542 -0.0403136 -0.0412976 -0.0422588 -0.0432248 -0.0441654 -0.0451006 -0.0460065 -0.0469046 -0.0478106 -0.0487165 -0.0496217 -0.0505267 -0.0514184 -0.0523222 -0.0532308 -0.0541406 -0.0550609 -0.055966 -0.0568783 -0.05779 -0.0586995 -0.0596146 -0.0605159 -0.0614142 -0.0623138 -0.0632137 -0.0641098 -0.0649909 -0.0658709 -0.0667505 -0.0676281 -0.0685039 -0.0693621 -0.0702178 -0.071076 -0.0719347 -0.0727913 -0.0736253 -0.0744607 -0.0752955 -0.0761279 -0.0769615 -0.0777688 -0.0785742 -0.0793819 -0.0801901 -0.0809969 -0.0817725 -0.0825497 -0.0833264 -0.0841008 -0.0848767 -0.0856175 -0.0863575 -0.0870998 -0.0878425 -0.0885849 -0.0892873 -0.0899925 -0.0906972 -0.0913998 -0.0921052 -0.0927665 -0.0934287 -0.0940929 -0.0947575 -0.0954233 -0.0960402 -0.0966612 -0.0972819 -0.0979007 -0.0985234 -0.0990924 -0.0996654 -0.10024 -0.100815 -0.101395 -0.101914 -0.102441 -0.102969 -0.103495 -0.104029 -0.104501 -0.104979 -0.105457 -0.105936 -0.106421 -0.106843 -0.10727 -0.107697 -0.108124 -0.108555 -0.108925 -0.109298 -0.10967 -0.110043 -0.110418 -0.110733 -0.111049 -0.111365 -0.111682 -0.112001 -0.11226 -0.11252 -0.11278 -0.113039 -0.113299 -0.113501 -0.113703 -0.113905 -0.114108 -0.11431 -0.114454 -0.114598 -0.114742 -0.114886 -0.115028 -0.115111 -0.115197 -0.115282 -0.115367 -0.115455 -0.115479 -0.115507 -0.115536 -0.115565 -0.115598 -0.115566 -0.11554 -0.115514 -0.115488 -0.115469 -0.115385 -0.115307 -0.115227 -0.115147 -0.115074 -0.114938 -0.114805 -0.114673 -0.114543 -0.114415 -0.114229 -0.114047 -0.113863 -0.113678 -0.113498 -0.113262 -0.113028 -0.112795 -0.112564 -0.112335 -0.112053 -0.111776 -0.111496 -0.111215 -0.110939 -0.110614 -0.110289 -0.109966 -0.109644 -0.109324 -0.108959 -0.108596 -0.108231 -0.107865 -0.107502 -0.107099 -0.106694 -0.106291 -0.105889 -0.105486 -0.105045 -0.104606 -0.104167 -0.103726 -0.103288 -0.102811 -0.102338 -0.101866 -0.101395 -0.100927 -0.100421 -0.0999225 -0.0994214 -0.0989197 -0.0984247 -0.0978956 -0.0973693 -0.0968437 -0.0963207 -0.0958005 -0.0952509 -0.0947061 -0.0941588 -0.0936109 -0.0930678 -0.0924993 -0.0919322 -0.0913656 -0.0908015 -0.0902384 -0.0896538 -0.0890733 -0.0884904 -0.0879071 -0.0873277 -0.0867299 -0.0861335 -0.0855375 -0.0849438 -0.0843511 -0.0837434 -0.0831396 -0.0825336 -0.0819272 -0.0813244 -0.0807096 -0.0800961 -0.0794829 -0.0788718 -0.0782617 -0.0776425 -0.0770269 -0.0764093 -0.0757913 -0.0751766 -0.0745556 -0.0739358 -0.0733163 -0.0726987 -0.0720819 -0.0714616 -0.0708443 -0.0702255 -0.0696063 -0.0689901 -0.0683726 -0.0677563 -0.0671403 -0.0665258 -0.0659122 -0.0652996 -0.0646897 -0.0640785 -0.063467 -0.0628581 -0.0622521 -0.0616472 -0.0610426 -0.0604392 -0.0598368 -0.0592391 -0.058644 -0.0580477 -0.0574512 -0.056857 -0.0562693 -0.0556827 -0.0550963 -0.054511 -0.0539265 -0.0533501 -0.0527759 -0.0522008 -0.0516255 -0.0510523 -0.0504884 -0.0499256 -0.049363 -0.0488012 -0.0482402 -0.04769 -0.0471415 -0.0465925 -0.0460433 -0.0454958 -0.04496 -0.0444252 -0.0438906 -0.0433565 -0.0428233 -0.0423028 -0.0417838 -0.0412644 -0.0407449 -0.0402269 -0.0397222 -0.0392185 -0.0387149 -0.0382117 -0.0377094 -0.0372211 -0.0367342 -0.0362469 -0.0357596 -0.0352735 -0.034802 -0.0343314 -0.0338609 -0.0333905 -0.0329211 -0.0324665 -0.0320131 -0.0315595 -0.031106 -0.0306534 -0.030216 -0.0297796 -0.0293432 -0.0289068 -0.0284713 -0.0280511 -0.0276318 -0.0272126 -0.0267934 -0.026375 -0.025972 -0.02557 -0.0251679 -0.0247657 -0.0243644 -0.0239784 -0.0235933 -0.0232084 -0.0228234 -0.0224395 -0.0220704 -0.0217028 -0.0213351 -0.0209673 -0.0206007 -0.0202487 -0.0198981 -0.0195475 -0.0191971 -0.0188477 -0.0185123 -0.0181784 -0.0178445 -0.0175106 -0.0171778 -0.0168592 -0.0165415 -0.0162238 -0.015906 -0.0155893 -0.0152869 -0.0149849 -0.0146829 -0.0143807 -0.0140789 -0.0137925 -0.0135055 -0.0132188 -0.0129321 -0.0126452 -0.0123739 -0.0121023 -0.0118306 -0.0115585 -0.0112863 -0.0110293 -0.0107718 -0.0105148 -0.0102578 -0.0100003 -0.00975754 -0.00951484 -0.00927207 -0.00902896 -0.00878605 -0.00855707 -0.00832772 -0.00809878 -0.00786992 -0.00764058 -0.0074249 -0.00720938 -0.00699375 -0.00677762 -0.00656176 -0.00635867 -0.00615528 -0.00595242 -0.00574967 -0.00554663 -0.00535565 -0.00516528 -0.0049748 -0.00478377 -0.00459329 -0.00441414 -0.00423526 -0.00405679 -0.0038784 -0.00370038 -0.00353237 -0.00336543 -0.00319845 -0.0030313 -0.00286497 -0.00270835 -0.00255225 -0.00239624 -0.00224026 -0.00208493 -0.00193923 -0.00179366 -0.00164802 -0.00150216 -0.00135659 -0.00122118 -0.00108495 -0.000949108 -0.00081335 -0.00067683 -0.000550865 -0.000424466 -0.000297965 -0.000171013 -4.37737e-05 7.34972e-05 0.000191463 0.00030899 0.000426418 0.000544584 0.000653401 0.000762253 0.000871192 0.000980524 0.00108987 0.00119059 0.00129171 0.00139248 0.00149317 0.00159424 0.00168724 0.00178021 0.00187324 0.00196661 0.00205991 0.00214557 0.0022316 0.00231732 0.00240297 0.00248893 0.00256768 0.00264639 0.00272517 0.00280427 0.00288331 0.00295548 0.00302804 0.00310027 0.00317243 0.00324491 0.00331097 0.00337698 0.00344306 0.00350945 0.00357576 0.00363601 0.00369658 0.00375689 0.00381712 0.00387763 0.00393243 0.00398726 0.00404214 0.00409726 0.0041524 0.00420201 0.00425201 0.00430177 0.00435148 0.0044015 0.00444628 0.00449116 0.00453609 0.00458126 0.00462651 0.00466672 0.00470737 0.00474778 0.00478814 0.00482885 0.00486485 0.00490098 0.00493716 0.00497358 0.00501011 0.00504212 0.00507457 0.00510681 0.005139 0.00517157 0.0051999 0.0052284 0.00525695 0.00528572 0.00531465 0.0053395 0.00536482 0.00538994 0.00541501 0.00544049 0.00546216 0.00548404 0.00550596 0.00552808 0.00555039 0.00556906 0.0055882 0.00560716 0.00562608 0.00564542 0.00566135 0.00567752 0.00569374 0.00571014 0.00572676 0.00574012 0.00575397 0.00576765 0.00578129 0.00579537 0.0058064 0.00581771 0.00582905 0.00584055 0.00585233 0.00586116 0.0058705 0.00587969 0.00588884 0.00589845 0.00590532 0.0059125 0.00591971 0.00592707 0.00593473 0.00593974 0.00594529 0.00595069 0.00595606 0.00596191 0.00596529 0.00596901 0.00597277 0.00597666 0.00598088 0.00598272 0.0059851 0.00598736 0.00598959 0.00599232 0.00599281 0.00599368 0.00599458 0.00599559 0.00599697 0.00599619 0.00599596 0.00599563 0.00599526 0.00599541 0.00599353 0.00599207 0.00599063 0.0059893 0.00598839 0.00598551 0.0059832 0.00598078 0.00597834 0.00597642 0.00597269 0.00596938 0.00596608 0.00596289 0.00596011 0.00595559 0.00595162 0.00594757 0.00594349 0.00593992 0.00593476 0.00593002 0.00592531 0.00592068 0.00591648 0.00591073 0.00590553 0.00590026 0.00589497 0.0058902 0.00588399 0.00587824 0.0058725 0.00586684 0.00586163 0.00585502 0.00584897 0.00584285 0.00583672 0.00583112 0.00582422 0.0058178 0.00581139 0.00580504 0.00579918 0.00579204 0.00578548 0.00577886 0.00577222 0.00576613 0.00575887 0.0057521 0.00574534 0.00573864 0.00573243 0.00572508 0.00571831 0.00571149 0.00570466 0.00569839 0.00569106 0.00568424 0.00567743 0.00567067 0.00566442 0.00565715 0.00565045 0.00564372 0.00563698 0.0056308 0.00562368 0.00561708 0.00561049 0.00560394 0.00559792 0.00559097 0.00558462 0.00557824 0.00557184 0.00556603 0.00555936 0.00555323 0.00554711 0.00554102 0.00553549 0.00552911 0.00552333 0.00551753 0.00551173 0.00550651 0.00550051 0.00549509 0.00548966 0.00548424 0.00547942 0.0054738 0.00546879 0.00546378 0.00545877 0.00545437 0.0054492 0.00544465 0.00544009 0.0054355 0.00543157 0.0054268 0.00542264 0.00541856 0.00541449 0.00541103 0.00540665 0.00540306 0.00539942 0.00539563 0.00539265 0.00538848 0.00538489 0.00538165 0.0053785 0.00537594 0.00537161 0.00536879 0.00536579 0.005362 0.00535972 0.00535439 0.00534914 0.00534614 0.00534368 0.00534124 0.00533219 0.00533045 0.00532753 0.00531958 0.00531854 0.00530421 0.00527964 0.00527512 0.00527534 0.0052646 0.00522169 0.00523326 0.00524362 0.00524889 0.005317 0.00541045 0.005474 0.00553756 0.00557553 0.00552922 0.00550999 0.00550294 0.00549589 0.00548839 0.00549238 0.00550991 0.00552807 0.00554622 0.00555792 0.00556917 0.00557022 0.00557127 0.00557233 0.00557325 0.00557395 0.00559877 0.00562771 0.00565674 0.00568577 0.00565914 0.00569729 0.00575992 0.00582293 0.00588594 0.00596593 0.0061802 0.0062692 0.00635166 0.00642776 0.00632083 0.00635669 0.0063373 0.00632085 0.00631139 0.00625601 0.00620946 0.0059879 0.00576634 0.00553219 0.00503859 0.00469897 0.00420509 0.00371121 0.00321465 0.00259585 0.00241423 0.00213692 0.00185962 0.00158231 0.00124251 0.00122341 0.00111839 0.00101336 0.00090834 0.000751166 0.000715172 0.000603702 0.000492232 0.000380763 0.000206758