# vtk DataFile Version 2.0
track0
ASCII
DATASET POLYDATA
POINTS 15780 float
-1.001 -0.05 0.0011
-1.0008 -0.05 0.0011
-1.0006 -0.05 0.0011
-1.0004 -0.05 0.0011
-1.0002 -0.05 0.0011
-1 -0.05 0.0011
-0.9875 -0.05 0.0011
-0.975 -0.05 0.0011
-0.9625 -0.05 0.0011
-0.95 -0.05 0.0011
-0.9375 -0.05 0.00109999
-0.925 -0.05 0.00109999
-0.9125 -0.05 0.00109999
-0.9 -0.05 0.00109999
-0.8875 -0.05 0.00109999
-0.875 -0.05 0.00109999
-0.8625 -0.05 0.00109999
-0.85 -0.05 0.00109999
-0.8375 -0.05 0.00109998
-0.825 -0.0500001 0.00109998
-0.8125 -0.0500001 0.00109998
-0.8 -0.0500001 0.00109998
-0.7875 -0.0500001 0.00109998
-0.775 -0.0500001 0.00109998
-0.7625 -0.0500001 0.00109998
-0.75 -0.0500001 0.00109998
-0.7375 -0.0500001 0.00109997
-0.725 -0.0500001 0.00109997
-0.7125 -0.0500001 0.00109997
-0.7 -0.0500001 0.00109997
-0.6875 -0.0500001 0.00109997
-0.675 -0.0500001 0.00109997
-0.6625 -0.0500001 0.00109997
-0.65 -0.0500001 0.00109996
-0.6375 -0.0500001 0.00109996
-0.625 -0.0500001 0.00109996
-0.6125 -0.0500001 0.00109996
-0.6 -0.0500001 0.00109996
-0.5875 -0.0500001 0.00109996
-0.575 -0.0500001 0.00109996
-0.5625 -0.0500001 0.00109996
-0.55 -0.0500001 0.00109995
-0.5375 -0.0500001 0.00109995
-0.525 -0.0500001 0.00109995
-0.5125 -0.0500001 0.00109995
-0.5 -0.0500001 0.00109995
-0.4875 -0.0500001 0.00109995
-0.475 -0.0500001 0.00109995
-0.4625 -0.0500001 0.00109994
-0.45 -0.0500002 0.00109994
-0.4375 -0.0500002 0.00109994
-0.425 -0.0500002 0.00109994
-0.4125 -0.0500002 0.00109994
-0.4 -0.0500002 0.00109994
-0.3875 -0.0500002 0.00109994
-0.375 -0.0500002 0.00109994
-0.3625 -0.0500002 0.00109993
-0.35 -0.0500002 0.00109993
-0.3375 -0.0500002 0.00109993
-0.325 -0.0500002 0.00109993
-0.3125 -0.0500002 0.00109993
-0.3 -0.0500002 0.00109993
-0.2875 -0.0500002 0.00109993
-0.275 -0.0500002 0.00109993
-0.2625 -0.0500002 0.00109992
-0.25 -0.0500002 0.00109992
-0.2375 -0.0500002 0.00109992
-0.225 -0.0500002 0.00109992
-0.2125 -0.0500002 0.00109992
-0.2 -0.0500002 0.00109992
-0.1875 -0.0500002 0.00109992
-0.175 -0.0500002 0.00109992
-0.1625 -0.0500002 0.00109991
-0.15 -0.0500002 0.00109991
-0.1375 -0.0500002 0.00109991
-0.125 -0.0500002 0.00109991
-0.1125 -0.0500002 0.00109991
-0.1 -0.0500002 0.00109991
-0.0875 -0.0500002 0.00109991
-0.075 -0.0500002 0.00109991
-0.0625 -0.0500002 0.00109991
-0.05 -0.0500003 0.00109991
-0.0375 -0.0500003 0.0010999
-0.025 -0.0500003 0.0010999
-0.0125 -0.0500003 0.0010999
2.10607e-13 -0.0500003 0.0010999
0.0125 -0.0500003 0.0010999
0.025 -0.0500003 0.0010999
0.0375 -0.0500003 0.0010999
0.05 -0.0500003 0.0010999
0.0625 -0.0500003 0.0010999
0.075 -0.0500003 0.0010999
0.0875 -0.0500003 0.0010999
0.1 -0.0500003 0.00109989
0.1125 -0.0500003 0.00109989
0.125 -0.0500003 0.00109989
0.1375 -0.0500003 0.00109989
0.15 -0.0500003 0.00109989
0.1625 -0.0500003 0.00109989
0.175 -0.0500003 0.00109989
0.1875 -0.0500003 0.00109989
0.2 -0.0500003 0.00109989
0.2125 -0.0500003 0.00109989
0.225 -0.0500003 0.00109989
0.2375 -0.0500003 0.00109989
0.25 -0.0500003 0.00109989
0.2625 -0.0500003 0.00109988
0.275 -0.0500003 0.00109988
0.2875 -0.0500003 0.00109988
0.3 -0.0500003 0.00109988
0.3125 -0.0500003 0.00109988
0.325 -0.0500003 0.00109988
0.3375 -0.0500003 0.00109988
0.35 -0.0500003 0.00109988
0.3625 -0.0500003 0.00109988
0.375 -0.0500003 0.00109988
0.3875 -0.0500003 0.00109988
0.4 -0.0500004 0.00109988
0.4125 -0.0500004 0.00109988
0.425 -0.0500004 0.00109988
0.4375 -0.0500004 0.00109988
0.45 -0.0500004 0.00109988
0.4625 -0.0500004 0.00109988
0.475 -0.0500004 0.00109988
0.4875 -0.0500004 0.00109988
0.5 -0.0500004 0.00109988
0.5125 -0.0500004 0.00109988
0.525 -0.0500004 0.00109988
0.5375 -0.0500004 0.00109988
0.55 -0.0500004 0.00109988
0.5625 -0.0500004 0.00109988
0.575 -0.0500004 0.00109987
0.5875 -0.0500004 0.00109987
0.6 -0.0500004 0.00109987
0.6125 -0.0500004 0.00109987
0.625 -0.0500004 0.00109987
0.6375 -0.0500004 0.00109987
0.65 -0.0500004 0.00109987
0.6625 -0.0500004 0.00109987
0.675 -0.0500004 0.00109987
0.6875 -0.0500004 0.00109987
0.7 -0.0500004 0.00109987
0.7125 -0.0500004 0.00109987
0.725 -0.0500004 0.00109987
0.7375 -0.0500004 0.00109987
0.75 -0.0500004 0.00109987
0.7625 -0.0500004 0.00109987
0.775 -0.0500004 0.00109987
0.7875 -0.0500004 0.00109987
0.8 -0.0500004 0.00109987
0.8125 -0.0500004 0.00109987
0.825 -0.0500004 0.00109987
0.8375 -0.0500004 0.00109987
0.85 -0.0500004 0.00109987
0.8625 -0.0500004 0.00109987
0.875 -0.0500004 0.00109987
0.8875 -0.0500004 0.00109987
0.9 -0.0500004 0.00109987
0.9125 -0.0500005 0.00109988
0.925 -0.0500005 0.00109988
0.9375 -0.0500005 0.00109988
0.95 -0.0500005 0.00109988
0.9625 -0.0500005 0.00109988
0.975 -0.0500005 0.00109988
0.9875 -0.0500005 0.00109988
1 -0.0500005 0.00109988
1.0125 -0.0500005 0.00109988
1.025 -0.0500005 0.00109988
1.0375 -0.0500005 0.00109988
1.05 -0.0500005 0.00109988
1.0625 -0.0500005 0.00109988
1.075 -0.0500005 0.00109988
1.0875 -0.0500005 0.00109988
1.1 -0.0500005 0.00109988
1.1125 -0.0500005 0.00109988
1.125 -0.0500005 0.00109988
1.1375 -0.0500005 0.00109988
1.15 -0.0500005 0.00109988
1.1625 -0.0500005 0.00109988
1.175 -0.0500005 0.00109988
1.1875 -0.0500005 0.00109988
1.2 -0.0500005 0.00109988
1.2125 -0.0500005 0.00109988
1.225 -0.0500005 0.00109988
1.2375 -0.0500005 0.00109989
1.25 -0.0500005 0.00109989
1.2625 -0.0500005 0.00109989
1.275 -0.0500005 0.00109989
1.2875 -0.0500005 0.00109989
1.3 -0.0500005 0.00109989
1.3125 -0.0500005 0.00109989
1.325 -0.0500005 0.00109989
1.3375 -0.0500005 0.00109989
1.35 -0.0500005 0.00109989
1.3625 -0.0500005 0.00109989
1.375 -0.0500005 0.00109989
1.3875 -0.0500005 0.00109989
1.4 -0.0500005 0.00109989
1.4125 -0.0500005 0.00109989
1.425 -0.0500005 0.00109989
1.4375 -0.0500005 0.0010999
1.45 -0.0500005 0.0010999
1.4625 -0.0500005 0.0010999
1.475 -0.0500005 0.0010999
1.4875 -0.0500005 0.0010999
1.5 -0.0500006 0.0010999
1.5125 -0.0500006 0.0010999
1.525 -0.0500006 0.0010999
1.5375 -0.0500006 0.0010999
1.55 -0.0500006 0.0010999
1.5625 -0.0500006 0.0010999
1.575 -0.0500006 0.0010999
1.5875 -0.0500006 0.0010999
1.6 -0.0500006 0.0010999
1.6125 -0.0500006 0.00109991
1.625 -0.0500006 0.00109991
1.6375 -0.0500006 0.00109991
1.65 -0.0500006 0.00109991
1.6625 -0.0500006 0.00109991
1.675 -0.0500006 0.00109991
1.6875 -0.0500006 0.00109991
1.7 -0.0500006 0.00109991
1.7125 -0.0500006 0.00109991
1.725 -0.0500006 0.00109991
1.7375 -0.0500006 0.00109991
1.75 -0.0500006 0.00109991
1.7625 -0.0500006 0.00109992
1.775 -0.0500006 0.00109992
1.7875 -0.0500006 0.00109992
1.8 -0.0500006 0.00109992
1.8125 -0.0500006 0.00109992
1.825 -0.0500006 0.00109992
1.8375 -0.0500006 0.00109992
1.85 -0.0500006 0.00109992
1.8625 -0.0500006 0.00109992
1.875 -0.0500006 0.00109992
1.8875 -0.0500006 0.00109992
1.9 -0.0500006 0.00109992
1.9125 -0.0500006 0.00109993
1.925 -0.0500006 0.00109993
1.9375 -0.0500006 0.00109993
1.95 -0.0500006 0.00109993
1.9625 -0.0500006 0.00109993
1.975 -0.0500006 0.00109993
1.9875 -0.0500006 0.00109993
2 -0.0500006 0.00109993
2.0125 -0.0500006 0.00109993
2.025 -0.0500006 0.00109993
2.0375 -0.0500006 0.00109993
2.05 -0.0500006 0.00109993
2.0625 -0.0500006 0.00109993
2.075 -0.0500006 0.00109994
2.0875 -0.0500006 0.00109994
2.1 -0.0500006 0.00109994
2.1125 -0.0500006 0.00109994
2.125 -0.0500006 0.00109994
2.1375 -0.0500006 0.00109994
2.15 -0.0500006 0.00109994
2.1625 -0.0500006 0.00109994
2.175 -0.0500007 0.00109994
2.1875 -0.0500007 0.00109994
2.2 -0.0500007 0.00109994
2.2125 -0.0500007 0.00109994
2.225 -0.0500007 0.00109995
2.2375 -0.0500007 0.00109995
2.25 -0.0500007 0.00109995
2.2625 -0.0500007 0.00109995
2.275 -0.0500007 0.00109995
2.2875 -0.0500007 0.00109995
2.3 -0.0500007 0.00109995
2.3125 -0.0500007 0.00109995
2.325 -0.0500007 0.00109995
2.3375 -0.0500007 0.00109995
2.35 -0.0500007 0.00109995
2.3625 -0.0500007 0.00109995
2.375 -0.0500007 0.00109995
2.3875 -0.0500007 0.00109996
2.4 -0.0500007 0.00109996
2.4125 -0.0500007 0.00109996
2.425 -0.0500007 0.00109996
2.4375 -0.0500007 0.00109996
2.45 -0.0500007 0.00109996
2.4625 -0.0500007 0.00109996
2.475 -0.0500007 0.00109996
2.4875 -0.0500007 0.00109996
2.5 -0.0500007 0.00109996
2.5125 -0.0500007 0.00109996
2.525 -0.0500007 0.00109996
2.5375 -0.0500007 0.00109996
2.55 -0.0500007 0.00109996
2.5625 -0.0500007 0.00109997
2.575 -0.0500007 0.00109997
2.5875 -0.0500007 0.00109997
2.6 -0.0500007 0.00109997
2.6125 -0.0500007 0.00109997
2.625 -0.0500007 0.00109997
2.6375 -0.0500007 0.00109997
2.65 -0.0500007 0.00109997
2.6625 -0.0500007 0.00109997
2.675 -0.0500007 0.00109997
2.6875 -0.0500007 0.00109997
2.7 -0.0500007 0.00109997
2.7125 -0.0500007 0.00109997
2.725 -0.0500007 0.00109997
2.7375 -0.0500007 0.00109997
2.75 -0.0500007 0.00109997
2.7625 -0.0500007 0.00109998
2.775 -0.0500007 0.00109998
2.7875 -0.0500007 0.00109998
2.8 -0.0500007 0.00109998
2.8125 -0.0500007 0.00109998
2.825 -0.0500007 0.00109998
2.8375 -0.0500007 0.00109998
2.85 -0.0500007 0.00109998
2.8625 -0.0500008 0.00109998
2.875 -0.0500008 0.00109998
2.8875 -0.0500008 0.00109998
2.9 -0.0500008 0.00109998
2.9125 -0.0500008 0.00109998
2.925 -0.0500008 0.00109998
2.9375 -0.0500008 0.00109998
2.95 -0.0500008 0.00109998
2.9625 -0.0500008 0.00109998
2.975 -0.0500008 0.00109998
2.9875 -0.0500008 0.00109998
3 -0.0500008 0.00109998
3.0125 -0.0500008 0.00109999
3.025 -0.0500008 0.00109999
3.0375 -0.0500008 0.00109999
3.05 -0.0500008 0.00109999
3.0625 -0.0500008 0.00109999
3.075 -0.0500008 0.00109999
3.0875 -0.0500008 0.00109999
3.1 -0.0500008 0.00109999
3.1125 -0.0500008 0.00109999
3.125 -0.0500008 0.00109999
3.1375 -0.0500008 0.00109999
3.15 -0.0500008 0.00109999
3.1625 -0.0500008 0.00109999
3.175 -0.0500008 0.00109999
3.1875 -0.0500008 0.00109999
3.2 -0.0500008 0.00109999
3.2125 -0.0500008 0.00109999
3.225 -0.0500008 0.00109999
3.2375 -0.0500008 0.00109999
3.25 -0.0500008 0.00109999
3.2625 -0.0500008 0.00109999
3.275 -0.0500008 0.00109999
3.2875 -0.0500008 0.00109999
3.3 -0.0500008 0.00109999
3.3125 -0.0500008 0.00109999
3.325 -0.0500008 0.00109999
3.3375 -0.0500008 0.00109999
3.35 -0.0500008 0.0011
3.3625 -0.0500008 0.0011
[...]
POINT_DATA 15780
 FIELD attributes 1
U 3 15780 float
30.0002 	-7.01778e-06 	-6.30587e-06 30.0002 	-6.8433e-06 	-6.51454e-06 30.0002 	-6.66881e-06 	-6.72321e-06 30.0002 	-6.49433e-06 	-6.93187e-06 30.0002 	-6.31985e-06 	-7.14054e-06 30.0002 	-6.14536e-06 	-7.34921e-06 30.0004 	-1.2385e-05 	-1.26101e-06 30.0004 	-1.2385e-05 	-1.26101e-06 30.0004 	-1.2385e-05 	-1.26101e-06 30.0004 	-1.2385e-05 	-1.261e-06 30.0002 	-7.04657e-08 	-6.84367e-06 30.0005 	-1.07089e-05 	-1.68706e-06 30.0005 	-1.07089e-05 	-1.68706e-06 30.0005 	-1.07089e-05 	-1.68706e-06 30.0005 	-1.07089e-05 	-1.68706e-06 30.0002 	-7.21522e-08 	-6.59608e-06 30.0005 	-9.95837e-06 	-2.08024e-06 30.0005 	-9.95836e-06 	-2.08024e-06 30.0005 	-9.95835e-06 	-2.08024e-06 30.0005 	-9.95835e-06 	-2.08024e-06 30.0003 	-4.59303e-06 	-6.24726e-06 30.0005 	-9.69162e-06 	-2.34897e-06 30.0005 	-9.69161e-06 	-2.34897e-06 30.0005 	-9.6916e-06 	-2.34896e-06 30.0005 	-9.69159e-06 	-2.34896e-06 30.0003 	-7.57624e-08 	-6.57616e-06 30.0005 	-9.52346e-06 	-2.49784e-06 30.0005 	-9.52345e-06 	-2.49784e-06 30.0005 	-9.52344e-06 	-2.49784e-06 30.0005 	-9.52343e-06 	-2.49783e-06 30.0003 	-7.753e-08 	-6.52628e-06 30.0005 	-9.38711e-06 	-2.55609e-06 30.0005 	-9.3871e-06 	-2.55608e-06 30.0005 	-9.38709e-06 	-2.55608e-06 30.0005 	-9.38708e-06 	-2.55608e-06 30.0003 	-4.26688e-06 	-6.08529e-06 30.0005 	-9.27969e-06 	-2.55831e-06 30.0005 	-9.27969e-06 	-2.55831e-06 30.0005 	-9.27968e-06 	-2.55831e-06 30.0005 	-9.27967e-06 	-2.55831e-06 30.0003 	-4.19929e-06 	-5.9779e-06 30.0006 	-9.18753e-06 	-2.53045e-06 30.0006 	-9.18752e-06 	-2.53045e-06 30.0006 	-9.18751e-06 	-2.53044e-06 30.0006 	-9.1875e-06 	-2.53044e-06 30.0003 	-8.28568e-08 	-6.20128e-06 30.0006 	-9.09747e-06 	-2.4812e-06 30.0006 	-9.09746e-06 	-2.4812e-06 30.0006 	-9.09745e-06 	-2.4812e-06 30.0006 	-9.09745e-06 	-2.48119e-06 30.0003 	-8.46119e-08 	-6.05425e-06 30.0006 	-9.00503e-06 	-2.41363e-06 30.0006 	-9.00502e-06 	-2.41363e-06 30.0006 	-9.00501e-06 	-2.41362e-06 30.0006 	-9.005e-06 	-2.41362e-06 30.0003 	-8.63661e-08 	-5.88783e-06 30.0006 	-8.90888e-06 	-2.32974e-06 30.0006 	-8.90888e-06 	-2.32974e-06 30.0006 	-8.90887e-06 	-2.32973e-06 30.0006 	-8.90886e-06 	-2.32973e-06 30.0003 	-3.9379e-06 	-5.36348e-06 30.0006 	-8.80884e-06 	-2.23276e-06 30.0006 	-8.80884e-06 	-2.23275e-06 30.0006 	-8.80883e-06 	-2.23275e-06 30.0006 	-8.80882e-06 	-2.23275e-06 30.0003 	-3.86411e-06 	-5.16476e-06 30.0006 	-8.70457e-06 	-2.12415e-06 30.0006 	-8.70456e-06 	-2.12415e-06 30.0006 	-8.70456e-06 	-2.12414e-06 30.0006 	-8.70455e-06 	-2.12414e-06 30.0003 	-9.16305e-08 	-5.28459e-06 30.0006 	-8.59637e-06 	-2.00509e-06 30.0006 	-8.59636e-06 	-2.00509e-06 30.0006 	-8.59635e-06 	-2.00508e-06 30.0006 	-8.59635e-06 	-2.00508e-06 30.0003 	-3.70449e-06 	-4.7194e-06 30.0007 	-8.48499e-06 	-1.87669e-06 30.0007 	-8.48498e-06 	-1.87669e-06 30.0007 	-8.48497e-06 	-1.87669e-06 30.0007 	-8.48497e-06 	-1.87669e-06 30.0003 	-3.61939e-06 	-4.47432e-06 30.0007 	-8.37163e-06 	-1.73885e-06 30.0007 	-8.37163e-06 	-1.73885e-06 30.0007 	-8.37162e-06 	-1.73884e-06 30.0007 	-8.37161e-06 	-1.73884e-06 30.0004 	-9.68302e-08 	-4.5432e-06 30.0007 	-8.26001e-06 	-1.59804e-06 30.0007 	-8.26e-06 	-1.59804e-06 30.0007 	-8.26e-06 	-1.59804e-06 30.0007 	-8.25999e-06 	-1.59804e-06 30.0004 	-9.8547e-08 	-4.27125e-06 30.0007 	-8.14799e-06 	-1.46324e-06 30.0007 	-8.14799e-06 	-1.46324e-06 30.0007 	-8.14799e-06 	-1.46324e-06 30.0007 	-8.14798e-06 	-1.46324e-06 30.0004 	-1.00267e-07 	-3.98928e-06 30.0007 	-8.01991e-06 	-1.32073e-06 30.0007 	-8.01991e-06 	-1.32073e-06 30.0007 	-8.0199e-06 	-1.32073e-06 30.0007 	-8.0199e-06 	-1.32073e-06 30.0004 	-3.25096e-06 	-3.37796e-06 30.0007 	-7.8811e-06 	-1.16801e-06 30.0007 	-7.8811e-06 	-1.16801e-06 30.0007 	-7.88109e-06 	-1.16801e-06 30.0007 	-7.88109e-06 	-1.16801e-06 30.0004 	-1.03674e-07 	-3.40289e-06 30.0007 	-7.74515e-06 	-1.00788e-06 30.0007 	-7.74514e-06 	-1.00788e-06 30.0007 	-7.74514e-06 	-1.00788e-06 30.0007 	-7.74514e-06 	-1.00788e-06 30.0004 	-1.05368e-07 	-3.10328e-06 30.0007 	-7.611e-06 	-8.41866e-07 30.0007 	-7.611e-06 	-8.41866e-07 30.0007 	-7.61099e-06 	-8.41866e-07 30.0007 	-7.61099e-06 	-8.41866e-07 30.0004 	-2.93176e-06 	-2.4879e-06 30.0007 	-7.47521e-06 	-6.70212e-07 30.0007 	-7.47521e-06 	-6.70212e-07 30.0007 	-7.4752e-06 	-6.70211e-07 30.0007 	-7.4752e-06 	-6.70211e-07 30.0004 	-2.82527e-06 	-2.18314e-06 30.0007 	-7.34304e-06 	-4.97058e-07 30.0007 	-7.34304e-06 	-4.97058e-07 30.0007 	-7.34304e-06 	-4.97058e-07 30.0007 	-7.34304e-06 	-4.97057e-07 30.0004 	-1.10414e-07 	-2.17112e-06 30.0007 	-7.21522e-06 	-3.1733e-07 30.0007 	-7.21522e-06 	-3.1733e-07 30.0007 	-7.21522e-06 	-3.1733e-07 30.0007 	-7.21522e-06 	-3.1733e-07 30.0004 	-1.12079e-07 	-1.85338e-06 30.0007 	-7.09847e-06 	-1.38228e-07 30.0007 	-7.09847e-06 	-1.38228e-07 30.0007 	-7.09847e-06 	-1.38228e-07 30.0007 	-7.09847e-06 	-1.38228e-07 30.0004 	-1.13729e-07 	-1.54904e-06 30.0007 	-6.98513e-06 	4.084e-08 30.0007 	-6.98513e-06 	4.084e-08 30.0007 	-6.98513e-06 	4.084e-08 30.0007 	-6.98513e-06 	4.084e-08 30.0004 	-2.43877e-06 	-9.58526e-07 30.0007 	-6.87151e-06 	2.14654e-07 30.0007 	-6.87151e-06 	2.14654e-07 30.0007 	-6.87151e-06 	2.14654e-07 30.0007 	-6.87152e-06 	2.14654e-07 30.0004 	-2.34715e-06 	-6.82325e-07 30.0007 	-6.75331e-06 	3.90703e-07 30.0007 	-6.75331e-06 	3.90703e-07 30.0007 	-6.75331e-06 	3.90703e-07 30.0007 	-6.75331e-06 	3.90703e-07 30.0004 	-1.18651e-07 	-7.09789e-07 30.0007 	-6.64278e-06 	5.64355e-07 30.0007 	-6.64278e-06 	5.64356e-07 30.0007 	-6.64278e-06 	5.64356e-07 30.0007 	-6.64278e-06 	5.64356e-07 30.0004 	-2.16678e-06 	-1.4547e-07 30.0007 	-6.53578e-06 	7.27383e-07 30.0007 	-6.53578e-06 	7.27384e-07 30.0007 	-6.53578e-06 	7.27384e-07 30.0007 	-6.53579e-06 	7.27384e-07 30.0004 	-2.0811e-06 	1.13806e-07 30.0007 	-6.43046e-06 	8.78823e-07 30.0007 	-6.43046e-06 	8.78823e-07 30.0007 	-6.43046e-06 	8.78823e-07 30.0007 	-6.43046e-06 	8.78824e-07 30.0004 	-1.23529e-07 	7.05523e-08 30.0007 	-6.32283e-06 	1.01777e-06 30.0007 	-6.32283e-06 	1.01777e-06 30.0007 	-6.32283e-06 	1.01777e-06 30.0007 	-6.32283e-06 	1.01778e-06 30.0004 	-1.25107e-07 	3.1578e-07 30.0007 	-6.21645e-06 	1.1406e-06 30.0007 	-6.21646e-06 	1.1406e-06 30.0007 	-6.21646e-06 	1.1406e-06 30.0007 	-6.21646e-06 	1.14061e-06 30.0004 	-1.26692e-07 	5.45498e-07 30.0007 	-6.1152e-06 	1.25631e-06 30.0007 	-6.1152e-06 	1.25631e-06 30.0007 	-6.1152e-06 	1.25631e-06 30.0007 	-6.11521e-06 	1.25631e-06 30.0004 	-1.76427e-06 	1.03204e-06 30.0007 	-6.02247e-06 	1.37126e-06 30.0007 	-6.02247e-06 	1.37126e-06 30.0007 	-6.02248e-06 	1.37126e-06 30.0007 	-6.02248e-06 	1.37126e-06 30.0004 	-1.298e-07 	9.36915e-07 30.0007 	-5.9428e-06 	1.48848e-06 30.0007 	-5.94281e-06 	1.48849e-06 30.0007 	-5.94281e-06 	1.48849e-06 30.0007 	-5.94281e-06 	1.48849e-06 30.0004 	-1.31301e-07 	1.10453e-06 30.0007 	-5.87159e-06 	1.59287e-06 30.0007 	-5.87159e-06 	1.59287e-06 30.0007 	-5.8716e-06 	1.59288e-06 30.0007 	-5.8716e-06 	1.59288e-06 30.0004 	-1.5914e-06 	1.53874e-06 30.0007 	-5.80199e-06 	1.6793e-06 30.0007 	-5.80199e-06 	1.6793e-06 30.0007 	-5.80199e-06 	1.6793e-06 30.0007 	-5.802e-06 	1.6793e-06 30.0003 	-1.54419e-06 	1.67818e-06 30.0007 	-5.7339e-06 	1.75009e-06 30.0007 	-5.73391e-06 	1.7501e-06 30.0007 	-5.73391e-06 	1.7501e-06 30.0007 	-5.73391e-06 	1.7501e-06 30.0003 	-1.36014e-07 	1.5247e-06 30.0006 	-5.66877e-06 	1.8098e-06 30.0006 	-5.66877e-06 	1.8098e-06 30.0006 	-5.66877e-06 	1.8098e-06 30.0006 	-5.66878e-06 	1.8098e-06 30.0003 	-1.37573e-07 	1.63225e-06 30.0006 	-5.6087e-06 	1.85993e-06 30.0006 	-5.6087e-06 	1.85993e-06 30.0006 	-5.60871e-06 	1.85993e-06 30.0006 	-5.60871e-06 	1.85993e-06 30.0003 	-1.39047e-07 	1.72397e-06 30.0006 	-5.55441e-06 	1.90042e-06 30.0006 	-5.55441e-06 	1.90042e-06 30.0006 	-5.55442e-06 	1.90042e-06 30.0006 	-5.55442e-06 	1.90043e-06 30.0003 	-1.38889e-06 	2.07101e-06 30.0006 	-5.50558e-06 	1.93108e-06 30.0006 	-5.50559e-06 	1.93109e-06 30.0006 	-5.50559e-06 	1.93109e-06 30.0006 	-5.50559e-06 	1.93109e-06 30.0003 	-1.36186e-06 	2.13094e-06 30.0006 	-5.46184e-06 	1.95182e-06 30.0006 	-5.46184e-06 	1.95183e-06 30.0006 	-5.46185e-06 	1.95183e-06 30.0006 	-5.46185e-06 	1.95183e-06 30.0003 	-1.431e-07 	1.90824e-06 30.0006 	-5.42306e-06 	1.96277e-06 30.0006 	-5.42306e-06 	1.96277e-06 30.0006 	-5.42307e-06 	1.96277e-06 30.0006 	-5.42307e-06 	1.96278e-06 30.0003 	-1.32348e-06 	2.20764e-06 30.0006 	-5.3891e-06 	1.96431e-06 30.0006 	-5.38911e-06 	1.96431e-06 30.0006 	-5.38911e-06 	1.96431e-06 30.0006 	-5.38912e-06 	1.96431e-06 30.0003 	-1.31171e-06 	2.22552e-06 30.0006 	-5.35993e-06 	1.95691e-06 30.0006 	-5.35994e-06 	1.95691e-06 30.0006 	-5.35994e-06 	1.95691e-06 30.0006 	-5.35994e-06 	1.95691e-06 30.0003 	-1.46992e-07 	1.96615e-06 30.0005 	-5.33544e-06 	1.94111e-06 30.0005 	-5.33544e-06 	1.94112e-06 30.0005 	-5.33544e-06 	1.94112e-06 30.0005 	-5.33545e-06 	1.94112e-06 30.0003 	-1.48249e-07 	1.96055e-06 30.0005 	-5.31545e-06 	1.91792e-06 30.0005 	-5.31546e-06 	1.91793e-06 30.0005 	-5.31546e-06 	1.91793e-06 30.0005 	-5.31546e-06 	1.91793e-06 30.0003 	-1.4947e-07 	1.94422e-06 30.0005 	-5.29988e-06 	1.888e-06 30.0005 	-5.29988e-06 	1.888e-06 30.0005 	-5.29989e-06 	1.888e-06 30.0005 	-5.29989e-06 	1.888e-06 30.0003 	-1.30917e-06 	2.17899e-06 30.0005 	-5.28855e-06 	1.8519e-06 30.0005 	-5.28856e-06 	1.8519e-06 30.0005 	-5.28856e-06 	1.8519e-06 30.0005 	-5.28856e-06 	1.8519e-06 30.0003 	-1.51836e-07 	1.88228e-06 30.0005 	-5.28128e-06 	1.81008e-06 30.0005 	-5.28129e-06 	1.81008e-06 30.0005 	-5.28129e-06 	1.81008e-06 30.0005 	-5.28129e-06 	1.81008e-06 30.0003 	-1.52961e-07 	1.83816e-06 30.0005 	-5.27785e-06 	1.76316e-06 30.0005 	-5.27785e-06 	1.76316e-06 30.0005 	-5.27786e-06 	1.76316e-06 30.0005 	-5.27786e-06 	1.76316e-06 30.0003 	-1.34841e-06 	2.04407e-06 30.0005 	-5.27804e-06 	1.71163e-06 30.0005 	-5.27804e-06 	1.71163e-06 30.0005 	-5.27804e-06 	1.71163e-06 30.0005 	-5.27805e-06 	1.71163e-06 30.0003 	-1.36848e-06 	1.98423e-06 30.0005 	-5.28161e-06 	1.656e-06 30.0005 	-5.28161e-06 	1.656e-06 30.0005 	-5.28162e-06 	1.656e-06 30.0005 	-5.28162e-06 	1.656e-06 30.0002 	-1.56192e-07 	1.6628e-06 30.0005 	-5.28842e-06 	1.59669e-06 30.0005 	-5.28842e-06 	1.59669e-06 30.0005 	-5.28842e-06 	1.59669e-06 30.0005 	-5.28843e-06 	1.59669e-06 30.0002 	-1.57252e-07 	1.59256e-06 30.0004 	-5.29838e-06 	1.53417e-06 30.0004 	-5.29839e-06 	1.53417e-06 30.0004 	-5.29839e-06 	1.53417e-06 30.0004 	-5.29839e-06 	1.53417e-06 30.0002 	-1.58333e-07 	1.51769e-06 30.0004 	-5.31134e-06 	1.46891e-06 30.0004 	-5.31134e-06 	1.46891e-06 30.0004 	-5.31135e-06 	1.46891e-06 30.0004 	-5.31135e-06 	1.46891e-06 30.0002 	-1.48016e-06 	1.69062e-06 30.0004 	-5.3269e-06 	1.40146e-06 30.0004 	-5.3269e-06 	1.40146e-06 30.0004 	-5.32691e-06 	1.40146e-06 30.0004 	-5.32691e-06 	1.40146e-06 30.0002 	-1.51468e-06 	1.60713e-06 30.0004 	-5.3448e-06 	1.33221e-06 30.0004 	-5.3448e-06 	1.33221e-06 30.0004 	-5.3448e-06 	1.33221e-06 30.0004 	-5.34481e-06 	1.33221e-06 30.0002 	-1.61602e-07 	1.27187e-06 30.0004 	-5.36482e-06 	1.2615e-06 30.0004 	-5.36482e-06 	1.2615e-06 30.0004 	-5.36483e-06 	1.2615e-06 30.0004 	-5.36483e-06 	1.2615e-06 30.0002 	-1.59001e-06 	1.4325e-06 30.0004 	-5.38665e-06 	1.18983e-06 30.0004 	-5.38665e-06 	1.18983e-06 30.0004 	-5.38666e-06 	1.18983e-06 30.0004 	-5.38666e-06 	1.18983e-06 30.0002 	-1.63049e-06 	1.34243e-06 30.0004 	-5.41028e-06 	1.11751e-06 30.0004 	-5.41028e-06 	1.11751e-06 30.0004 	-5.41029e-06 	1.11751e-06 30.0004 	-5.41029e-06 	1.11751e-06 30.0002 	-1.64619e-07 	1.0061e-06 30.0004 	-5.43537e-06 	1.04484e-06 30.0004 	-5.43538e-06 	1.04484e-06 30.0004 	-5.43538e-06 	1.04484e-06 30.0004 	-5.43538e-06 	1.04484e-06 30.0002 	-1.65556e-07 	9.15632e-07 30.0004 	-5.46104e-06 	9.72297e-07 30.0004 	-5.46105e-06 	9.72298e-07 30.0004 	-5.46105e-06 	9.72298e-07 30.0004 	-5.46105e-06 	9.72298e-07 30.0002 	-1.66462e-07 	8.25012e-07 30.0004 	-5.48711e-06 	8.9952e-07 30.0004 	-5.48712e-06 	8.99521e-07 30.0004 	-5.48712e-06 	8.99521e-07 30.0004 	-5.48712e-06 	8.99521e-07 30.0002 	-1.80739e-06 	9.75437e-07 30.0004 	-5.51392e-06 	8.25988e-07 30.0004 	-5.51392e-06 	8.25988e-07 30.0004 	-5.51392e-06 	8.25988e-07 30.0004 	-5.51392e-06 	8.25989e-07 30.0002 	-1.68178e-07 	6.43649e-07 30.0003 	-5.54367e-06 	7.52029e-07 30.0003 	-5.54367e-06 	7.5203e-07 30.0003 	-5.54367e-06 	7.5203e-07 30.0003 	-5.54367e-06 	7.5203e-07 30.0002 	-1.68997e-07 	5.52656e-07 30.0003 	-5.57815e-06 	6.77485e-07 30.0003 	-5.57815e-06 	6.77486e-07 30.0003 	-5.57816e-06 	6.77486e-07 30.0003 	-5.57816e-06 	6.77486e-07 30.0002 	-1.95576e-06 	7.01333e-07 30.0003 	-5.61502e-06 	6.04422e-07 30.0003 	-5.61502e-06 	6.04422e-07 30.0003 	-5.61502e-06 	6.04422e-07 30.0003 	-5.61503e-06 	6.04423e-07 30.0002 	-2.00795e-06 	6.11705e-07 30.0003 	-5.65109e-06 	5.34706e-07 30.0003 	-5.65109e-06 	5.34706e-07 30.0003 	-5.65109e-06 	5.34706e-07 30.0003 	-5.65109e-06 	5.34706e-07 30.0002 	-1.71481e-07 	2.80968e-07 30.0003 	-5.6822e-06 	4.67682e-07 30.0003 	-5.6822e-06 	4.67682e-07 30.0003 	-5.6822e-06 	4.67682e-07 30.0003 	-5.6822e-06 	4.67682e-07 30.0002 	-1.72307e-07 	1.97354e-07 30.0003 	-5.71062e-06 	4.03236e-07 30.0003 	-5.71062e-06 	4.03236e-07 30.0003 	-5.71062e-06 	4.03236e-07 30.0003 	-5.71062e-06 	4.03236e-07 30.0002 	-1.73106e-07 	1.16424e-07 30.0003 	-5.7388e-06 	3.39273e-07 30.0003 	-5.7388e-06 	3.39273e-07 30.0003 	-5.7388e-06 	3.39273e-07 30.0003 	-5.7388e-06 	3.39273e-07 30.0002 	-2.2012e-06 	2.74108e-07 30.0003 	-5.76678e-06 	2.75309e-07 30.0003 	-5.76678e-06 	2.75309e-07 30.0003 	-5.76678e-06 	2.75309e-07 30.0003 	-5.76678e-06 	2.75309e-07 30.0002 	-2.24813e-06 	1.96366e-07 30.0003 	-5.79349e-06 	2.10822e-07 30.0003 	-5.79349e-06 	2.10822e-07 30.0003 	-5.79349e-06 	2.10822e-07 30.0003 	-5.79349e-06 	2.10822e-07 30.0002 	-1.75258e-07 	-1.09121e-07 30.0003 	-5.82147e-06 	1.48809e-07 30.0003 	-5.82147e-06 	1.48809e-07 30.0003 	-5.82147e-06 	1.48809e-07 30.0003 	-5.82147e-06 	1.48809e-07 30.0002 	-2.34188e-06 	4.46824e-08 30.0003 	-5.85073e-06 	9.00141e-08 30.0003 	-5.85073e-06 	9.00142e-08 30.0003 	-5.85074e-06 	9.00142e-08 30.0003 	-5.85074e-06 	9.00142e-08 30.0002 	-2.38918e-06 	-2.90902e-08 30.0003 	-5.88115e-06 	3.48445e-08 30.0003 	-5.88115e-06 	3.48445e-08 30.0003 	-5.88115e-06 	3.48445e-08 30.0003 	-5.88115e-06 	3.48445e-08 30.0002 	-1.7724e-07 	-3.30746e-07 30.0003 	-5.91284e-06 	-1.70442e-08 30.0003 	-5.91284e-06 	-1.70442e-08 30.0003 	-5.91284e-06 	-1.70442e-08 30.0003 	-5.91284e-06 	-1.70442e-08 30.0002 	-1.77854e-07 	-4.01782e-07 30.0003 	-5.94597e-06 	-6.90252e-08 30.0003 	-5.94597e-06 	-6.90252e-08 30.0003 	-5.94597e-06 	-6.90252e-08 30.0003 	-5.94597e-06 	-6.90252e-08 30.0002 	-1.78458e-07 	-4.67054e-07 30.0003 	-5.97793e-06 	-1.23287e-07 30.0003 	-5.97793e-06 	-1.23287e-07 30.0003 	-5.97793e-06 	-1.23287e-07 30.0003 	-5.97793e-06 	-1.23287e-07 30.0002 	-2.58069e-06 	-3.01365e-07 30.0003 	-6.00571e-06 	-1.7793e-07 30.0003 	-6.00571e-06 	-1.7793e-07 30.0003 	-6.00571e-06 	-1.7793e-07 30.0003 	-6.00571e-06 	-1.7793e-07 30.0002 	-1.79641e-07 	-5.84865e-07 30.0003 	-6.02983e-06 	-2.29189e-07 30.0003 	-6.02983e-06 	-2.29189e-07 30.0003 	-6.02983e-06 	-2.29189e-07 30.0003 	-6.02983e-06 	-2.29189e-07 30.0002 	-1.80231e-07 	-6.42128e-07 30.0003 	-6.05307e-06 	-2.76154e-07 30.0003 	-6.05307e-06 	-2.76154e-07 30.0003 	-6.05307e-06 	-2.76154e-07 30.0003 	-6.05307e-06 	-2.76154e-07 30.0002 	-2.70876e-06 	-4.78964e-07 30.0003 	-6.07693e-06 	-3.19633e-07 30.0003 	-6.07693e-06 	-3.19633e-07 30.0003 	-6.07693e-06 	-3.19633e-07 30.0003 	-6.07693e-06 	-3.19633e-07 30.0002 	-2.74978e-06 	-5.34007e-07 30.0003 	-6.10115e-06 	-3.61167e-07 30.0003 	-6.10114e-06 	-3.61167e-07 30.0003 	-6.10114e-06 	-3.61167e-07 30.0003 	-6.10114e-06 	-3.61167e-07 30.0002 	-1.81967e-07 	-8.03764e-07 30.0003 	-6.12518e-06 	-4.01365e-07 30.0003 	-6.12518e-06 	-4.01365e-07 30.0003 	-6.12518e-06 	-4.01365e-07 30.0003 	-6.12518e-06 	-4.01365e-07 30.0001 	-1.82516e-07 	-8.53084e-07 30.0003 	-6.14858e-06 	-4.4036e-07 30.0003 	-6.14858e-06 	-4.4036e-07 30.0003 	-6.14858e-06 	-4.40359e-07 30.0003 	-6.14858e-06 	-4.40359e-07 30.0001 	-1.83054e-07 	-9.00293e-07 30.0003 	-6.17124e-06 	-4.7798e-07 30.0003 	-6.17124e-06 	-4.7798e-07 30.0003 	-6.17124e-06 	-4.77979e-07 30.0003 	-6.17124e-06 	-4.77979e-07 30.0001 	-2.90928e-06 	-7.31435e-07 30.0003 	-6.19304e-06 	-5.14194e-07 30.0003 	-6.19304e-06 	-5.14194e-07 30.0003 	-6.19304e-06 	-5.14194e-07 30.0003 	-6.19304e-06 	-5.14194e-07 30.0001 	-2.94716e-06 	-7.75561e-07 30.0003 	-6.21395e-06 	-5.48819e-07 30.0003 	-6.21394e-06 	-5.48819e-07 30.0003 	-6.21394e-06 	-5.48819e-07 30.0003 	-6.21394e-06 	-5.48818e-07 30.0001 	-1.84574e-07 	-1.0295e-06 30.0003 	-6.23403e-06 	-5.82037e-07 30.0003 	-6.23403e-06 	-5.82037e-07 30.0003 	-6.23403e-06 	-5.82037e-07 30.0003 	-6.23403e-06 	-5.82037e-07 30.0001 	-3.02015e-06 	-8.57448e-07 30.0003 	-6.25331e-06 	-6.13878e-07 30.0003 	-6.25331e-06 	-6.13877e-07 30.0003 	-6.25331e-06 	-6.13877e-07 30.0003 	-6.25331e-06 	-6.13877e-07 30.0001 	-3.05524e-06 	-8.95453e-07 30.0003 	-6.27181e-06 	-6.44402e-07 30.0003 	-6.27181e-06 	-6.44401e-07 30.0003 	-6.2718e-06 	-6.44401e-07 30.0003 	-6.2718e-06 	-6.44401e-07 30.0001 	-1.86002e-07 	-1.14082e-06 30.0003 	-6.28952e-06 	-6.73602e-07 30.0003 	-6.28952e-06 	-6.73602e-07 30.0003 	-6.28952e-06 	-6.73602e-07 30.0003 	-6.28951e-06 	-6.73602e-07 30.0001 	-1.86452e-07 	-1.17457e-06 30.0003 	-6.30654e-06 	-7.0142e-07 30.0003 	-6.30654e-06 	-7.0142e-07 30.0003 	-6.30654e-06 	-7.0142e-07 30.0003 	-6.30654e-06 	-7.01419e-07 30.0001 	-1.86901e-07 	-1.20666e-06 30.0003 	-6.32262e-06 	-7.27851e-07 30.0003 	-6.32262e-06 	-7.2785e-07 30.0003 	-6.32262e-06 	-7.2785e-07 30.0003 	-6.32262e-06 	-7.2785e-07 30.0001 	-3.18669e-06 	-1.03097e-06 30.0003 	-6.33789e-06 	-7.52961e-07 30.0003 	-6.33789e-06 	-7.52961e-07 30.0003 	-6.33788e-06 	-7.52961e-07 30.0003 	-6.33788e-06 	-7.52961e-07 30.0001 	-1.87765e-07 	-1.26594e-06 30.0003 	-6.35241e-06 	-7.7693e-07 30.0003 	-6.35241e-06 	-7.76929e-07 30.0003 	-6.3524e-06 	-7.76929e-07 30.0003 	-6.3524e-06 	-7.76929e-07 30.0001 	-1.88179e-07 	-1.2933e-06 30.0003 	-6.36622e-06 	-7.99801e-07 30.0003 	-6.36622e-06 	-7.998e-07 30.0003 	-6.36622e-06 	-7.998e-07 30.0003 	-6.36622e-06 	-7.998e-07 30.0001 	-3.2761e-06 	-1.11602e-06 30.0003 	-6.37931e-06 	-8.21528e-07 30.0003 	-6.37931e-06 	-8.21528e-07 30.0003 	-6.37931e-06 	-8.21528e-07 30.0003 	-6.3793e-06 	-8.21527e-07 30.0001 	-3.30421e-06 	-1.14149e-06 30.0003 	-6.3916e-06 	-8.41965e-07 30.0003 	-6.3916e-06 	-8.41965e-07 30.0003 	-6.39159e-06 	-8.41965e-07 30.0003 	-6.39159e-06 	-8.41964e-07 30.0001 	-1.89379e-07 	-1.36684e-06 30.0003 	-6.40323e-06 	-8.61357e-07 30.0003 	-6.40322e-06 	-8.61357e-07 30.0003 	-6.40322e-06 	-8.61357e-07 30.0003 	-6.40322e-06 	-8.61357e-07 30.0001 	-1.89764e-07 	-1.38871e-06 30.0003 	-6.41417e-06 	-8.79795e-07 30.0003 	-6.41417e-06 	-8.79794e-07 30.0003 	-6.41417e-06 	-8.79794e-07 30.0003 	-6.41416e-06 	-8.79794e-07 30.0001 	-1.90144e-07 	-1.40936e-06 30.0003 	-6.42442e-06 	-8.97279e-07 30.0003 	-6.42442e-06 	-8.97279e-07 30.0003 	-6.42442e-06 	-8.97278e-07 30.0003 	-6.42441e-06 	-8.97278e-07 30.0001 	-3.40853e-06 	-1.23049e-06 30.0003 	-6.434e-06 	-9.13864e-07 30.0003 	-6.434e-06 	-9.13864e-07 30.0003 	-6.434e-06 	-9.13864e-07 30.0003 	-6.43399e-06 	-9.13863e-07 30.0001 	-3.43266e-06 	-1.24982e-06 30.0003 	-6.44289e-06 	-9.29552e-07 30.0003 	-6.44288e-06 	-9.29551e-07 30.0003 	-6.44288e-06 	-9.29551e-07 30.0003 	-6.44288e-06 	-9.29551e-07 30.0001 	-1.91228e-07 	-1.46453e-06 30.0003 	-6.45115e-06 	-9.44406e-07 30.0003 	-6.45115e-06 	-9.44406e-07 30.0003 	-6.45115e-06 	-9.44405e-07 30.0003 	-6.45115e-06 	-9.44405e-07 30.0001 	-3.47873e-06 	-1.28531e-06 30.0003 	-6.45884e-06 	-9.5841e-07 30.0003 	-6.45883e-06 	-9.5841e-07 30.0003 	-6.45883e-06 	-9.58409e-07 30.0003 	-6.45883e-06 	-9.58409e-07 30.0001 	-3.50078e-06 	-1.30157e-06 30.0003 	-6.46593e-06 	-9.71701e-07 30.0003 	-6.46593e-06 	-9.717e-07 30.0003 	-6.46592e-06 	-9.717e-07 30.0003 	-6.46592e-06 	-9.717e-07 30.0001 	-1.9226e-07 	-1.51055e-06 30.0003 	-6.4