# vtk DataFile Version 2.0
track0
ASCII
DATASET POLYDATA
POINTS 15780 float
-1.001 -0.05 0.0011
-1.0008 -0.05 0.0011
-1.0006 -0.05 0.0011
-1.0004 -0.05 0.0011
-1.0002 -0.05 0.0011
-1 -0.05 0.0011
-0.9875 -0.05 0.0011
-0.975 -0.05 0.0011
-0.9625 -0.05 0.0011
-0.95 -0.05 0.0011
-0.9375 -0.05 0.00109999
-0.925 -0.05 0.00109999
-0.9125 -0.05 0.00109999
-0.9 -0.05 0.00109999
-0.8875 -0.05 0.00109999
-0.875 -0.05 0.00109999
-0.8625 -0.05 0.00109999
-0.85 -0.05 0.00109999
-0.8375 -0.05 0.00109998
-0.825 -0.0500001 0.00109998
-0.8125 -0.0500001 0.00109998
-0.8 -0.0500001 0.00109998
-0.7875 -0.0500001 0.00109998
-0.775 -0.0500001 0.00109998
-0.7625 -0.0500001 0.00109998
-0.75 -0.0500001 0.00109998
-0.7375 -0.0500001 0.00109997
-0.725 -0.0500001 0.00109997
-0.7125 -0.0500001 0.00109997
-0.7 -0.0500001 0.00109997
-0.6875 -0.0500001 0.00109997
-0.675 -0.0500001 0.00109997
-0.6625 -0.0500001 0.00109997
-0.65 -0.0500001 0.00109996
-0.6375 -0.0500001 0.00109996
-0.625 -0.0500001 0.00109996
-0.6125 -0.0500001 0.00109996
-0.6 -0.0500001 0.00109996
-0.5875 -0.0500001 0.00109996
-0.575 -0.0500001 0.00109996
-0.5625 -0.0500001 0.00109996
-0.55 -0.0500001 0.00109995
-0.5375 -0.0500001 0.00109995
-0.525 -0.0500001 0.00109995
-0.5125 -0.0500001 0.00109995
-0.5 -0.0500001 0.00109995
-0.4875 -0.0500001 0.00109995
-0.475 -0.0500001 0.00109995
-0.4625 -0.0500001 0.00109994
-0.45 -0.0500002 0.00109994
-0.4375 -0.0500002 0.00109994
-0.425 -0.0500002 0.00109994
-0.4125 -0.0500002 0.00109994
-0.4 -0.0500002 0.00109994
-0.3875 -0.0500002 0.00109994
-0.375 -0.0500002 0.00109994
-0.3625 -0.0500002 0.00109993
-0.35 -0.0500002 0.00109993
-0.3375 -0.0500002 0.00109993
-0.325 -0.0500002 0.00109993
-0.3125 -0.0500002 0.00109993
-0.3 -0.0500002 0.00109993
-0.2875 -0.0500002 0.00109993
-0.275 -0.0500002 0.00109993
-0.2625 -0.0500002 0.00109992
-0.25 -0.0500002 0.00109992
-0.2375 -0.0500002 0.00109992
-0.225 -0.0500002 0.00109992
-0.2125 -0.0500002 0.00109992
-0.2 -0.0500002 0.00109992
-0.1875 -0.0500002 0.00109992
-0.175 -0.0500002 0.00109992
-0.1625 -0.0500002 0.00109991
-0.15 -0.0500002 0.00109991
-0.1375 -0.0500002 0.00109991
-0.125 -0.0500002 0.00109991
-0.1125 -0.0500002 0.00109991
-0.1 -0.0500002 0.00109991
-0.0875 -0.0500002 0.00109991
-0.075 -0.0500002 0.00109991
-0.0625 -0.0500002 0.00109991
-0.05 -0.0500003 0.00109991
-0.0375 -0.0500003 0.0010999
-0.025 -0.0500003 0.0010999
-0.0125 -0.0500003 0.0010999
2.10607e-13 -0.0500003 0.0010999
0.0125 -0.0500003 0.0010999
0.025 -0.0500003 0.0010999
0.0375 -0.0500003 0.0010999
0.05 -0.0500003 0.0010999
0.0625 -0.0500003 0.0010999
0.075 -0.0500003 0.0010999
0.0875 -0.0500003 0.0010999
0.1 -0.0500003 0.00109989
0.1125 -0.0500003 0.00109989
0.125 -0.0500003 0.00109989
0.1375 -0.0500003 0.00109989
0.15 -0.0500003 0.00109989
0.1625 -0.0500003 0.00109989
0.175 -0.0500003 0.00109989
0.1875 -0.0500003 0.00109989
0.2 -0.0500003 0.00109989
0.2125 -0.0500003 0.00109989
0.225 -0.0500003 0.00109989
0.2375 -0.0500003 0.00109989
0.25 -0.0500003 0.00109989
0.2625 -0.0500003 0.00109988
0.275 -0.0500003 0.00109988
0.2875 -0.0500003 0.00109988
0.3 -0.0500003 0.00109988
0.3125 -0.0500003 0.00109988
0.325 -0.0500003 0.00109988
0.3375 -0.0500003 0.00109988
0.35 -0.0500003 0.00109988
0.3625 -0.0500003 0.00109988
0.375 -0.0500003 0.00109988
0.3875 -0.0500003 0.00109988
0.4 -0.0500004 0.00109988
0.4125 -0.0500004 0.00109988
0.425 -0.0500004 0.00109988
0.4375 -0.0500004 0.00109988
0.45 -0.0500004 0.00109988
0.4625 -0.0500004 0.00109988
0.475 -0.0500004 0.00109988
0.4875 -0.0500004 0.00109988
0.5 -0.0500004 0.00109988
0.5125 -0.0500004 0.00109988
0.525 -0.0500004 0.00109988
0.5375 -0.0500004 0.00109988
0.55 -0.0500004 0.00109988
0.5625 -0.0500004 0.00109988
0.575 -0.0500004 0.00109987
0.5875 -0.0500004 0.00109987
0.6 -0.0500004 0.00109987
0.6125 -0.0500004 0.00109987
0.625 -0.0500004 0.00109987
0.6375 -0.0500004 0.00109987
0.65 -0.0500004 0.00109987
0.6625 -0.0500004 0.00109987
0.675 -0.0500004 0.00109987
0.6875 -0.0500004 0.00109987
0.7 -0.0500004 0.00109987
0.7125 -0.0500004 0.00109987
0.725 -0.0500004 0.00109987
0.7375 -0.0500004 0.00109987
0.75 -0.0500004 0.00109987
0.7625 -0.0500004 0.00109987
0.775 -0.0500004 0.00109987
0.7875 -0.0500004 0.00109987
0.8 -0.0500004 0.00109987
0.8125 -0.0500004 0.00109987
0.825 -0.0500004 0.00109987
0.8375 -0.0500004 0.00109987
0.85 -0.0500004 0.00109987
0.8625 -0.0500004 0.00109987
0.875 -0.0500004 0.00109987
0.8875 -0.0500004 0.00109987
0.9 -0.0500004 0.00109987
0.9125 -0.0500005 0.00109988
0.925 -0.0500005 0.00109988
0.9375 -0.0500005 0.00109988
0.95 -0.0500005 0.00109988
0.9625 -0.0500005 0.00109988
0.975 -0.0500005 0.00109988
0.9875 -0.0500005 0.00109988
1 -0.0500005 0.00109988
1.0125 -0.0500005 0.00109988
1.025 -0.0500005 0.00109988
1.0375 -0.0500005 0.00109988
1.05 -0.0500005 0.00109988
1.0625 -0.0500005 0.00109988
1.075 -0.0500005 0.00109988
1.0875 -0.0500005 0.00109988
1.1 -0.0500005 0.00109988
1.1125 -0.0500005 0.00109988
1.125 -0.0500005 0.00109988
1.1375 -0.0500005 0.00109988
1.15 -0.0500005 0.00109988
1.1625 -0.0500005 0.00109988
1.175 -0.0500005 0.00109988
1.1875 -0.0500005 0.00109988
1.2 -0.0500005 0.00109988
1.2125 -0.0500005 0.00109988
1.225 -0.0500005 0.00109988
1.2375 -0.0500005 0.00109989
1.25 -0.0500005 0.00109989
1.2625 -0.0500005 0.00109989
1.275 -0.0500005 0.00109989
1.2875 -0.0500005 0.00109989
1.3 -0.0500005 0.00109989
1.3125 -0.0500005 0.00109989
1.325 -0.0500005 0.00109989
1.3375 -0.0500005 0.00109989
1.35 -0.0500005 0.00109989
1.3625 -0.0500005 0.00109989
1.375 -0.0500005 0.00109989
1.3875 -0.0500005 0.00109989
1.4 -0.0500005 0.00109989
1.4125 -0.0500005 0.00109989
1.425 -0.0500005 0.00109989
1.4375 -0.0500005 0.0010999
1.45 -0.0500005 0.0010999
1.4625 -0.0500005 0.0010999
1.475 -0.0500005 0.0010999
1.4875 -0.0500005 0.0010999
1.5 -0.0500006 0.0010999
1.5125 -0.0500006 0.0010999
1.525 -0.0500006 0.0010999
1.5375 -0.0500006 0.0010999
1.55 -0.0500006 0.0010999
1.5625 -0.0500006 0.0010999
1.575 -0.0500006 0.0010999
1.5875 -0.0500006 0.0010999
1.6 -0.0500006 0.0010999
1.6125 -0.0500006 0.00109991
1.625 -0.0500006 0.00109991
1.6375 -0.0500006 0.00109991
1.65 -0.0500006 0.00109991
1.6625 -0.0500006 0.00109991
1.675 -0.0500006 0.00109991
1.6875 -0.0500006 0.00109991
1.7 -0.0500006 0.00109991
1.7125 -0.0500006 0.00109991
1.725 -0.0500006 0.00109991
1.7375 -0.0500006 0.00109991
1.75 -0.0500006 0.00109991
1.7625 -0.0500006 0.00109992
1.775 -0.0500006 0.00109992
1.7875 -0.0500006 0.00109992
1.8 -0.0500006 0.00109992
1.8125 -0.0500006 0.00109992
1.825 -0.0500006 0.00109992
1.8375 -0.0500006 0.00109992
1.85 -0.0500006 0.00109992
1.8625 -0.0500006 0.00109992
1.875 -0.0500006 0.00109992
1.8875 -0.0500006 0.00109992
1.9 -0.0500006 0.00109992
1.9125 -0.0500006 0.00109993
1.925 -0.0500006 0.00109993
1.9375 -0.0500006 0.00109993
1.95 -0.0500006 0.00109993
1.9625 -0.0500006 0.00109993
1.975 -0.0500006 0.00109993
1.9875 -0.0500006 0.00109993
2 -0.0500006 0.00109993
2.0125 -0.0500006 0.00109993
2.025 -0.0500006 0.00109993
2.0375 -0.0500006 0.00109993
2.05 -0.0500006 0.00109993
2.0625 -0.0500006 0.00109994
2.075 -0.0500006 0.00109994
2.0875 -0.0500006 0.00109994
2.1 -0.0500006 0.00109994
2.1125 -0.0500006 0.00109994
2.125 -0.0500006 0.00109994
2.1375 -0.0500006 0.00109994
2.15 -0.0500006 0.00109994
2.1625 -0.0500006 0.00109994
2.175 -0.0500007 0.00109994
2.1875 -0.0500007 0.00109994
2.2 -0.0500007 0.00109994
2.2125 -0.0500007 0.00109994
2.225 -0.0500007 0.00109995
2.2375 -0.0500007 0.00109995
2.25 -0.0500007 0.00109995
2.2625 -0.0500007 0.00109995
2.275 -0.0500007 0.00109995
2.2875 -0.0500007 0.00109995
2.3 -0.0500007 0.00109995
2.3125 -0.0500007 0.00109995
2.325 -0.0500007 0.00109995
2.3375 -0.0500007 0.00109995
2.35 -0.0500007 0.00109995
2.3625 -0.0500007 0.00109995
2.375 -0.0500007 0.00109995
2.3875 -0.0500007 0.00109996
2.4 -0.0500007 0.00109996
2.4125 -0.0500007 0.00109996
2.425 -0.0500007 0.00109996
2.4375 -0.0500007 0.00109996
2.45 -0.0500007 0.00109996
2.4625 -0.0500007 0.00109996
2.475 -0.0500007 0.00109996
2.4875 -0.0500007 0.00109996
2.5 -0.0500007 0.00109996
2.5125 -0.0500007 0.00109996
2.525 -0.0500007 0.00109996
2.5375 -0.0500007 0.00109996
2.55 -0.0500007 0.00109996
2.5625 -0.0500007 0.00109997
2.575 -0.0500007 0.00109997
2.5875 -0.0500007 0.00109997
2.6 -0.0500007 0.00109997
2.6125 -0.0500007 0.00109997
2.625 -0.0500007 0.00109997
2.6375 -0.0500007 0.00109997
2.65 -0.0500007 0.00109997
2.6625 -0.0500007 0.00109997
2.675 -0.0500007 0.00109997
2.6875 -0.0500007 0.00109997
2.7 -0.0500007 0.00109997
2.7125 -0.0500007 0.00109997
2.725 -0.0500007 0.00109997
2.7375 -0.0500007 0.00109997
2.75 -0.0500007 0.00109997
2.7625 -0.0500007 0.00109998
2.775 -0.0500007 0.00109998
2.7875 -0.0500007 0.00109998
2.8 -0.0500007 0.00109998
2.8125 -0.0500007 0.00109998
2.825 -0.0500007 0.00109998
2.8375 -0.0500007 0.00109998
2.85 -0.0500007 0.00109998
2.8625 -0.0500008 0.00109998
2.875 -0.0500008 0.00109998
2.8875 -0.0500008 0.00109998
2.9 -0.0500008 0.00109998
2.9125 -0.0500008 0.00109998
2.925 -0.0500008 0.00109998
2.9375 -0.0500008 0.00109998
2.95 -0.0500008 0.00109998
2.9625 -0.0500008 0.00109998
2.975 -0.0500008 0.00109998
2.9875 -0.0500008 0.00109998
3 -0.0500008 0.00109998
3.0125 -0.0500008 0.00109999
3.025 -0.0500008 0.00109999
3.0375 -0.0500008 0.00109999
3.05 -0.0500008 0.00109999
3.0625 -0.0500008 0.00109999
3.075 -0.0500008 0.00109999
3.0875 -0.0500008 0.00109999
3.1 -0.0500008 0.00109999
3.1125 -0.0500008 0.00109999
3.125 -0.0500008 0.00109999
3.1375 -0.0500008 0.00109999
3.15 -0.0500008 0.00109999
3.1625 -0.0500008 0.00109999
3.175 -0.0500008 0.00109999
3.1875 -0.0500008 0.00109999
3.2 -0.0500008 0.00109999
3.2125 -0.0500008 0.00109999
3.225 -0.0500008 0.00109999
3.2375 -0.0500008 0.00109999
3.25 -0.0500008 0.00109999
3.2625 -0.0500008 0.00109999
3.275 -0.0500008 0.00109999
3.2875 -0.0500008 0.00109999
3.3 -0.0500008 0.00109999
3.3125 -0.0500008 0.00109999
3.325 -0.0500008 0.00109999
3.3375 -0.0500008 0.00109999
3.35 -0.0500008 0.0011
3.3625 -0.0500008 0.0011
[...]
POINT_DATA 15780
 FIELD attributes 1
U 3 15780 float
30.0002 	-7.01806e-06 	-6.30587e-06 30.0002 	-6.84357e-06 	-6.51454e-06 30.0002 	-6.66908e-06 	-6.72321e-06 30.0002 	-6.49459e-06 	-6.93187e-06 30.0002 	-6.32011e-06 	-7.14054e-06 30.0002 	-6.14562e-06 	-7.34921e-06 30.0004 	-1.23855e-05 	-1.261e-06 30.0004 	-1.23855e-05 	-1.261e-06 30.0004 	-1.23855e-05 	-1.26099e-06 30.0004 	-1.23855e-05 	-1.26099e-06 30.0002 	-7.07296e-08 	-6.84366e-06 30.0005 	-1.07095e-05 	-1.68705e-06 30.0005 	-1.07095e-05 	-1.68705e-06 30.0005 	-1.07094e-05 	-1.68705e-06 30.0005 	-1.07094e-05 	-1.68705e-06 30.0002 	-7.24339e-08 	-6.59608e-06 30.0005 	-9.95892e-06 	-2.08023e-06 30.0005 	-9.95891e-06 	-2.08022e-06 30.0005 	-9.9589e-06 	-2.08022e-06 30.0005 	-9.9589e-06 	-2.08022e-06 30.0003 	-4.59332e-06 	-6.24725e-06 30.0005 	-9.69219e-06 	-2.34895e-06 30.0005 	-9.69218e-06 	-2.34895e-06 30.0005 	-9.69217e-06 	-2.34895e-06 30.0005 	-9.69216e-06 	-2.34895e-06 30.0003 	-7.60708e-08 	-6.57615e-06 30.0005 	-9.52405e-06 	-2.49783e-06 30.0005 	-9.52404e-06 	-2.49782e-06 30.0005 	-9.52403e-06 	-2.49782e-06 30.0005 	-9.52402e-06 	-2.49782e-06 30.0003 	-7.78488e-08 	-6.52627e-06 30.0005 	-9.38772e-06 	-2.55607e-06 30.0005 	-9.38771e-06 	-2.55607e-06 30.0005 	-9.3877e-06 	-2.55606e-06 30.0005 	-9.38769e-06 	-2.55606e-06 30.0003 	-4.2672e-06 	-6.08528e-06 30.0005 	-9.28033e-06 	-2.5583e-06 30.0005 	-9.28032e-06 	-2.5583e-06 30.0005 	-9.28031e-06 	-2.55829e-06 30.0005 	-9.2803e-06 	-2.55829e-06 30.0003 	-4.19962e-06 	-5.97789e-06 30.0006 	-9.18817e-06 	-2.53043e-06 30.0006 	-9.18816e-06 	-2.53043e-06 30.0006 	-9.18816e-06 	-2.53043e-06 30.0006 	-9.18815e-06 	-2.53042e-06 30.0003 	-8.32039e-08 	-6.20127e-06 30.0006 	-9.09814e-06 	-2.48118e-06 30.0006 	-9.09813e-06 	-2.48118e-06 30.0006 	-9.09812e-06 	-2.48118e-06 30.0006 	-9.09811e-06 	-2.48118e-06 30.0003 	-8.4969e-08 	-6.05424e-06 30.0006 	-9.00571e-06 	-2.41361e-06 30.0006 	-9.0057e-06 	-2.41361e-06 30.0006 	-9.00569e-06 	-2.41361e-06 30.0006 	-9.00569e-06 	-2.4136e-06 30.0003 	-8.6734e-08 	-5.88783e-06 30.0006 	-8.90959e-06 	-2.32973e-06 30.0006 	-8.90958e-06 	-2.32972e-06 30.0006 	-8.90958e-06 	-2.32972e-06 30.0006 	-8.90957e-06 	-2.32972e-06 30.0003 	-3.93827e-06 	-5.36347e-06 30.0006 	-8.80957e-06 	-2.23274e-06 30.0006 	-8.80957e-06 	-2.23274e-06 30.0006 	-8.80956e-06 	-2.23274e-06 30.0006 	-8.80955e-06 	-2.23274e-06 30.0003 	-3.86449e-06 	-5.16476e-06 30.0006 	-8.70533e-06 	-2.12413e-06 30.0006 	-8.70532e-06 	-2.12413e-06 30.0006 	-8.70531e-06 	-2.12413e-06 30.0006 	-8.70531e-06 	-2.12413e-06 30.0003 	-9.20271e-08 	-5.28458e-06 30.0006 	-8.59713e-06 	-2.00507e-06 30.0006 	-8.59712e-06 	-2.00507e-06 30.0006 	-8.59712e-06 	-2.00507e-06 30.0006 	-8.59711e-06 	-2.00507e-06 30.0003 	-3.70488e-06 	-4.7194e-06 30.0007 	-8.48578e-06 	-1.87667e-06 30.0007 	-8.48577e-06 	-1.87667e-06 30.0007 	-8.48576e-06 	-1.87667e-06 30.0007 	-8.48576e-06 	-1.87667e-06 30.0003 	-3.61979e-06 	-4.47431e-06 30.0007 	-8.37244e-06 	-1.73883e-06 30.0007 	-8.37244e-06 	-1.73883e-06 30.0007 	-8.37243e-06 	-1.73882e-06 30.0007 	-8.37243e-06 	-1.73882e-06 30.0004 	-9.72472e-08 	-4.54319e-06 30.0007 	-8.26081e-06 	-1.59802e-06 30.0007 	-8.26081e-06 	-1.59802e-06 30.0007 	-8.2608e-06 	-1.59802e-06 30.0007 	-8.2608e-06 	-1.59802e-06 30.0004 	-9.89654e-08 	-4.27123e-06 30.0007 	-8.14882e-06 	-1.46322e-06 30.0007 	-8.14882e-06 	-1.46322e-06 30.0007 	-8.14881e-06 	-1.46322e-06 30.0007 	-8.14881e-06 	-1.46322e-06 30.0004 	-1.00695e-07 	-3.98926e-06 30.0007 	-8.02076e-06 	-1.32071e-06 30.0007 	-8.02076e-06 	-1.32071e-06 30.0007 	-8.02075e-06 	-1.32071e-06 30.0007 	-8.02075e-06 	-1.32071e-06 30.0004 	-3.25139e-06 	-3.37795e-06 30.0007 	-7.88197e-06 	-1.16799e-06 30.0007 	-7.88197e-06 	-1.16799e-06 30.0007 	-7.88197e-06 	-1.16799e-06 30.0007 	-7.88196e-06 	-1.16799e-06 30.0004 	-1.0412e-07 	-3.40287e-06 30.0007 	-7.74604e-06 	-1.00786e-06 30.0007 	-7.74604e-06 	-1.00786e-06 30.0007 	-7.74604e-06 	-1.00786e-06 30.0007 	-7.74603e-06 	-1.00786e-06 30.0004 	-1.05822e-07 	-3.10326e-06 30.0007 	-7.61192e-06 	-8.41844e-07 30.0007 	-7.61191e-06 	-8.41844e-07 30.0007 	-7.61191e-06 	-8.41843e-07 30.0007 	-7.61191e-06 	-8.41843e-07 30.0004 	-2.93221e-06 	-2.48789e-06 30.0007 	-7.47615e-06 	-6.70189e-07 30.0007 	-7.47615e-06 	-6.70189e-07 30.0007 	-7.47615e-06 	-6.70188e-07 30.0007 	-7.47615e-06 	-6.70188e-07 30.0004 	-2.82573e-06 	-2.18313e-06 30.0007 	-7.34399e-06 	-4.97034e-07 30.0007 	-7.34399e-06 	-4.97034e-07 30.0007 	-7.34399e-06 	-4.97034e-07 30.0007 	-7.34398e-06 	-4.97033e-07 30.0004 	-1.10895e-07 	-2.1711e-06 30.0007 	-7.21619e-06 	-3.17305e-07 30.0007 	-7.21618e-06 	-3.17305e-07 30.0007 	-7.21618e-06 	-3.17305e-07 30.0007 	-7.21618e-06 	-3.17305e-07 30.0004 	-1.12567e-07 	-1.85336e-06 30.0007 	-7.09946e-06 	-1.38201e-07 30.0007 	-7.09945e-06 	-1.38201e-07 30.0007 	-7.09945e-06 	-1.38201e-07 30.0007 	-7.09945e-06 	-1.38201e-07 30.0004 	-1.14228e-07 	-1.54902e-06 30.0007 	-6.98614e-06 	4.08667e-08 30.0007 	-6.98614e-06 	4.08667e-08 30.0007 	-6.98614e-06 	4.08667e-08 30.0007 	-6.98614e-06 	4.08667e-08 30.0004 	-2.43926e-06 	-9.58511e-07 30.0007 	-6.87255e-06 	2.14684e-07 30.0007 	-6.87255e-06 	2.14684e-07 30.0007 	-6.87255e-06 	2.14684e-07 30.0007 	-6.87256e-06 	2.14684e-07 30.0004 	-2.34765e-06 	-6.8231e-07 30.0007 	-6.75434e-06 	3.90733e-07 30.0007 	-6.75434e-06 	3.90733e-07 30.0007 	-6.75434e-06 	3.90733e-07 30.0007 	-6.75434e-06 	3.90733e-07 30.0004 	-1.19165e-07 	-7.09766e-07 30.0007 	-6.6438e-06 	5.64383e-07 30.0007 	-6.6438e-06 	5.64383e-07 30.0007 	-6.6438e-06 	5.64383e-07 30.0007 	-6.6438e-06 	5.64383e-07 30.0004 	-2.16727e-06 	-1.45452e-07 30.0007 	-6.53683e-06 	7.27411e-07 30.0007 	-6.53683e-06 	7.27411e-07 30.0007 	-6.53683e-06 	7.27411e-07 30.0007 	-6.53683e-06 	7.27411e-07 30.0004 	-2.0816e-06 	1.13826e-07 30.0007 	-6.43153e-06 	8.78854e-07 30.0007 	-6.43153e-06 	8.78854e-07 30.0007 	-6.43153e-06 	8.78854e-07 30.0007 	-6.43153e-06 	8.78855e-07 30.0004 	-1.24059e-07 	7.05813e-08 30.0007 	-6.32388e-06 	1.0178e-06 30.0007 	-6.32388e-06 	1.0178e-06 30.0007 	-6.32389e-06 	1.0178e-06 30.0007 	-6.32389e-06 	1.0178e-06 30.0004 	-1.25637e-07 	3.1581e-07 30.0007 	-6.21753e-06 	1.14063e-06 30.0007 	-6.21754e-06 	1.14063e-06 30.0007 	-6.21754e-06 	1.14063e-06 30.0007 	-6.21754e-06 	1.14063e-06 30.0004 	-1.27231e-07 	5.45528e-07 30.0007 	-6.1163e-06 	1.25633e-06 30.0007 	-6.1163e-06 	1.25633e-06 30.0007 	-6.1163e-06 	1.25633e-06 30.0007 	-6.1163e-06 	1.25633e-06 30.0004 	-1.7648e-06 	1.03207e-06 30.0007 	-6.02359e-06 	1.37129e-06 30.0007 	-6.0236e-06 	1.37129e-06 30.0007 	-6.0236e-06 	1.37129e-06 30.0007 	-6.0236e-06 	1.37129e-06 30.0004 	-1.30354e-07 	9.36945e-07 30.0007 	-5.94394e-06 	1.48851e-06 30.0007 	-5.94395e-06 	1.48851e-06 30.0007 	-5.94395e-06 	1.48851e-06 30.0007 	-5.94395e-06 	1.48852e-06 30.0004 	-1.31858e-07 	1.10457e-06 30.0007 	-5.87276e-06 	1.5929e-06 30.0007 	-5.87276e-06 	1.5929e-06 30.0007 	-5.87276e-06 	1.5929e-06 30.0007 	-5.87277e-06 	1.59291e-06 30.0004 	-1.59195e-06 	1.53876e-06 30.0007 	-5.80318e-06 	1.67933e-06 30.0007 	-5.80318e-06 	1.67933e-06 30.0007 	-5.80318e-06 	1.67933e-06 30.0007 	-5.80319e-06 	1.67933e-06 30.0003 	-1.54474e-06 	1.67821e-06 30.0007 	-5.73508e-06 	1.75012e-06 30.0007 	-5.73508e-06 	1.75012e-06 30.0007 	-5.73509e-06 	1.75013e-06 30.0007 	-5.73509e-06 	1.75013e-06 30.0003 	-1.36594e-07 	1.52474e-06 30.0006 	-5.66995e-06 	1.80983e-06 30.0006 	-5.66995e-06 	1.80983e-06 30.0006 	-5.66996e-06 	1.80983e-06 30.0006 	-5.66996e-06 	1.80983e-06 30.0003 	-1.38162e-07 	1.63228e-06 30.0006 	-5.60991e-06 	1.85996e-06 30.0006 	-5.60991e-06 	1.85996e-06 30.0006 	-5.60991e-06 	1.85996e-06 30.0006 	-5.60992e-06 	1.85996e-06 30.0003 	-1.39649e-07 	1.72401e-06 30.0006 	-5.55565e-06 	1.90045e-06 30.0006 	-5.55565e-06 	1.90045e-06 30.0006 	-5.55565e-06 	1.90045e-06 30.0006 	-5.55566e-06 	1.90046e-06 30.0003 	-1.38948e-06 	2.07103e-06 30.0006 	-5.50685e-06 	1.93112e-06 30.0006 	-5.50685e-06 	1.93112e-06 30.0006 	-5.50685e-06 	1.93112e-06 30.0006 	-5.50686e-06 	1.93112e-06 30.0003 	-1.36245e-06 	2.13097e-06 30.0006 	-5.46308e-06 	1.95185e-06 30.0006 	-5.46309e-06 	1.95185e-06 30.0006 	-5.46309e-06 	1.95186e-06 30.0006 	-5.46309e-06 	1.95186e-06 30.0003 	-1.43711e-07 	1.90827e-06 30.0006 	-5.42428e-06 	1.9628e-06 30.0006 	-5.42429e-06 	1.9628e-06 30.0006 	-5.42429e-06 	1.9628e-06 30.0006 	-5.42429e-06 	1.9628e-06 30.0003 	-1.32407e-06 	2.20766e-06 30.0006 	-5.39035e-06 	1.96434e-06 30.0006 	-5.39036e-06 	1.96434e-06 30.0006 	-5.39036e-06 	1.96434e-06 30.0006 	-5.39037e-06 	1.96434e-06 30.0003 	-1.3123e-06 	2.22555e-06 30.0006 	-5.3612e-06 	1.95694e-06 30.0006 	-5.3612e-06 	1.95694e-06 30.0006 	-5.36121e-06 	1.95695e-06 30.0006 	-5.36121e-06 	1.95695e-06 30.0003 	-1.47612e-07 	1.96619e-06 30.0005 	-5.33667e-06 	1.94115e-06 30.0005 	-5.33668e-06 	1.94115e-06 30.0005 	-5.33668e-06 	1.94115e-06 30.0005 	-5.33668e-06 	1.94115e-06 30.0003 	-1.48864e-07 	1.96059e-06 30.0005 	-5.31671e-06 	1.91796e-06 30.0005 	-5.31671e-06 	1.91796e-06 30.0005 	-5.31671e-06 	1.91796e-06 30.0005 	-5.31672e-06 	1.91796e-06 30.0003 	-1.50089e-07 	1.94426e-06 30.0005 	-5.30114e-06 	1.88803e-06 30.0005 	-5.30115e-06 	1.88803e-06 30.0005 	-5.30115e-06 	1.88803e-06 30.0005 	-5.30115e-06 	1.88803e-06 30.0003 	-1.30975e-06 	2.17902e-06 30.0005 	-5.28983e-06 	1.85193e-06 30.0005 	-5.28983e-06 	1.85193e-06 30.0005 	-5.28984e-06 	1.85194e-06 30.0005 	-5.28984e-06 	1.85194e-06 30.0003 	-1.52461e-07 	1.88232e-06 30.0005 	-5.28257e-06 	1.81011e-06 30.0005 	-5.28257e-06 	1.81011e-06 30.0005 	-5.28258e-06 	1.81012e-06 30.0005 	-5.28258e-06 	1.81012e-06 30.0003 	-1.53585e-07 	1.8382e-06 30.0005 	-5.27915e-06 	1.76319e-06 30.0005 	-5.27915e-06 	1.7632e-06 30.0005 	-5.27916e-06 	1.7632e-06 30.0005 	-5.27916e-06 	1.7632e-06 30.0003 	-1.34901e-06 	2.0441e-06 30.0005 	-5.27936e-06 	1.71166e-06 30.0005 	-5.27936e-06 	1.71166e-06 30.0005 	-5.27936e-06 	1.71166e-06 30.0005 	-5.27937e-06 	1.71166e-06 30.0003 	-1.36908e-06 	1.98426e-06 30.0005 	-5.28289e-06 	1.65603e-06 30.0005 	-5.2829e-06 	1.65603e-06 30.0005 	-5.2829e-06 	1.65603e-06 30.0005 	-5.2829e-06 	1.65603e-06 30.0002 	-1.56826e-07 	1.66284e-06 30.0005 	-5.28971e-06 	1.59672e-06 30.0005 	-5.28971e-06 	1.59672e-06 30.0005 	-5.28971e-06 	1.59672e-06 30.0005 	-5.28971e-06 	1.59672e-06 30.0002 	-1.57888e-07 	1.59259e-06 30.0004 	-5.29968e-06 	1.5342e-06 30.0004 	-5.29968e-06 	1.5342e-06 30.0004 	-5.29968e-06 	1.5342e-06 30.0004 	-5.29969e-06 	1.5342e-06 30.0002 	-1.58975e-07 	1.51773e-06 30.0004 	-5.31265e-06 	1.46894e-06 30.0004 	-5.31266e-06 	1.46894e-06 30.0004 	-5.31266e-06 	1.46894e-06 30.0004 	-5.31266e-06 	1.46894e-06 30.0002 	-1.48076e-06 	1.69065e-06 30.0004 	-5.32823e-06 	1.40149e-06 30.0004 	-5.32823e-06 	1.40149e-06 30.0004 	-5.32824e-06 	1.40149e-06 30.0004 	-5.32824e-06 	1.40149e-06 30.0002 	-1.51529e-06 	1.60716e-06 30.0004 	-5.34608e-06 	1.33224e-06 30.0004 	-5.34608e-06 	1.33224e-06 30.0004 	-5.34609e-06 	1.33224e-06 30.0004 	-5.34609e-06 	1.33224e-06 30.0002 	-1.62227e-07 	1.2719e-06 30.0004 	-5.36607e-06 	1.26153e-06 30.0004 	-5.36607e-06 	1.26153e-06 30.0004 	-5.36607e-06 	1.26153e-06 30.0004 	-5.36608e-06 	1.26153e-06 30.0002 	-1.5906e-06 	1.43253e-06 30.0004 	-5.38792e-06 	1.18986e-06 30.0004 	-5.38792e-06 	1.18986e-06 30.0004 	-5.38792e-06 	1.18986e-06 30.0004 	-5.38792e-06 	1.18986e-06 30.0002 	-1.63109e-06 	1.34245e-06 30.0004 	-5.41155e-06 	1.11754e-06 30.0004 	-5.41156e-06 	1.11754e-06 30.0004 	-5.41156e-06 	1.11754e-06 30.0004 	-5.41156e-06 	1.11754e-06 30.0002 	-1.6523e-07 	1.00613e-06 30.0004 	-5.43658e-06 	1.04486e-06 30.0004 	-5.43658e-06 	1.04486e-06 30.0004 	-5.43658e-06 	1.04486e-06 30.0004 	-5.43659e-06 	1.04486e-06 30.0002 	-1.66151e-07 	9.15662e-07 30.0004 	-5.46226e-06 	9.7232e-07 30.0004 	-5.46227e-06 	9.7232e-07 30.0004 	-5.46227e-06 	9.7232e-07 30.0004 	-5.46227e-06 	9.72321e-07 30.0002 	-1.67058e-07 	8.25041e-07 30.0004 	-5.48834e-06 	8.99542e-07 30.0004 	-5.48834e-06 	8.99542e-07 30.0004 	-5.48834e-06 	8.99542e-07 30.0004 	-5.48834e-06 	8.99543e-07 30.0002 	-1.80797e-06 	9.75457e-07 30.0004 	-5.51515e-06 	8.26009e-07 30.0004 	-5.51515e-06 	8.26009e-07 30.0004 	-5.51515e-06 	8.26009e-07 30.0004 	-5.51515e-06 	8.26009e-07 30.0002 	-1.68771e-07 	6.43676e-07 30.0003 	-5.54489e-06 	7.52049e-07 30.0003 	-5.54489e-06 	7.5205e-07 30.0003 	-5.54489e-06 	7.5205e-07 30.0003 	-5.5449e-06 	7.5205e-07 30.0002 	-1.69584e-07 	5.52683e-07 30.0003 	-5.57939e-06 	6.77505e-07 30.0003 	-5.57939e-06 	6.77505e-07 30.0003 	-5.57939e-06 	6.77506e-07 30.0003 	-5.57939e-06 	6.77506e-07 30.0002 	-1.95634e-06 	7.01352e-07 30.0003 	-5.61627e-06 	6.04443e-07 30.0003 	-5.61627e-06 	6.04443e-07 30.0003 	-5.61627e-06 	6.04443e-07 30.0003 	-5.61627e-06 	6.04443e-07 30.0002 	-2.00852e-06 	6.11722e-07 30.0003 	-5.65228e-06 	5.34723e-07 30.0003 	-5.65228e-06 	5.34723e-07 30.0003 	-5.65228e-06 	5.34723e-07 30.0003 	-5.65228e-06 	5.34723e-07 30.0002 	-1.72063e-07 	2.80991e-07 30.0003 	-5.68338e-06 	4.677e-07 30.0003 	-5.68339e-06 	4.677e-07 30.0003 	-5.68339e-06 	4.677e-07 30.0003 	-5.68339e-06 	4.677e-07 30.0002 	-1.72888e-07 	1.97376e-07 30.0003 	-5.71182e-06 	4.03255e-07 30.0003 	-5.71182e-06 	4.03255e-07 30.0003 	-5.71182e-06 	4.03255e-07 30.0003 	-5.71182e-06 	4.03255e-07 30.0002 	-1.73689e-07 	1.16445e-07 30.0003 	-5.74e-06 	3.39293e-07 30.0003 	-5.74e-06 	3.39293e-07 30.0003 	-5.74e-06 	3.39293e-07 30.0003 	-5.74e-06 	3.39293e-07 30.0002 	-2.20176e-06 	2.74122e-07 30.0003 	-5.76798e-06 	2.7533e-07 30.0003 	-5.76798e-06 	2.7533e-07 30.0003 	-5.76798e-06 	2.7533e-07 30.0003 	-5.76798e-06 	2.7533e-07 30.0002 	-2.24868e-06 	1.96379e-07 30.0003 	-5.79463e-06 	2.10838e-07 30.0003 	-5.79463e-06 	2.10838e-07 30.0003 	-5.79463e-06 	2.10838e-07 30.0003 	-5.79463e-06 	2.10838e-07 30.0002 	-1.75808e-07 	-1.09104e-07 30.0003 	-5.82257e-06 	1.48822e-07 30.0003 	-5.82257e-06 	1.48822e-07 30.0003 	-5.82257e-06 	1.48822e-07 30.0003 	-5.82257e-06 	1.48822e-07 30.0002 	-2.3424e-06 	4.46918e-08 30.0003 	-5.85184e-06 	9.00283e-08 30.0003 	-5.85184e-06 	9.00283e-08 30.0003 	-5.85184e-06 	9.00283e-08 30.0003 	-5.85184e-06 	9.00284e-08 30.0002 	-2.3897e-06 	-2.90804e-08 30.0003 	-5.88224e-06 	3.48602e-08 30.0003 	-5.88224e-06 	3.48602e-08 30.0003 	-5.88224e-06 	3.48602e-08 30.0003 	-5.88224e-06 	3.48602e-08 30.0002 	-1.77757e-07 	-3.3073e-07 30.0003 	-5.91385e-06 	-1.7032e-08 30.0003 	-5.91385e-06 	-1.7032e-08 30.0003 	-5.91385e-06 	-1.7032e-08 30.0003 	-5.91385e-06 	-1.7032e-08 30.0002 	-1.78347e-07 	-4.01768e-07 30.0003 	-5.94697e-06 	-6.90141e-08 30.0003 	-5.94697e-06 	-6.90141e-08 30.0003 	-5.94697e-06 	-6.90141e-08 30.0003 	-5.94697e-06 	-6.90141e-08 30.0002 	-1.78948e-07 	-4.67042e-07 30.0003 	-5.97893e-06 	-1.23275e-07 30.0003 	-5.97893e-06 	-1.23275e-07 30.0003 	-5.97893e-06 	-1.23275e-07 30.0003 	-5.97893e-06 	-1.23275e-07 30.0002 	-2.58116e-06 	-3.0136e-07 30.0003 	-6.00671e-06 	-1.7792e-07 30.0003 	-6.00671e-06 	-1.7792e-07 30.0003 	-6.00671e-06 	-1.7792e-07 30.0003 	-6.00671e-06 	-1.7792e-07 30.0002 	-1.80122e-07 	-5.84856e-07 30.0003 	-6.03082e-06 	-2.2918e-07 30.0003 	-6.03082e-06 	-2.2918e-07 30.0003 	-6.03082e-06 	-2.2918e-07 30.0003 	-6.03082e-06 	-2.2918e-07 30.0002 	-1.80699e-07 	-6.4212e-07 30.0003 	-6.05406e-06 	-2.76145e-07 30.0003 	-6.05406e-06 	-2.76145e-07 30.0003 	-6.05406e-06 	-2.76145e-07 30.0003 	-6.05406e-06 	-2.76145e-07 30.0002 	-2.70922e-06 	-4.78961e-07 30.0003 	-6.07792e-06 	-3.19622e-07 30.0003 	-6.07792e-06 	-3.19622e-07 30.0003 	-6.07792e-06 	-3.19622e-07 30.0003 	-6.07792e-06 	-3.19622e-07 30.0002 	-2.75024e-06 	-5.34005e-07 30.0003 	-6.10207e-06 	-3.6116e-07 30.0003 	-6.10207e-06 	-3.6116e-07 30.0003 	-6.10206e-06 	-3.6116e-07 30.0003 	-6.10206e-06 	-3.6116e-07 30.0002 	-1.82417e-07 	-8.03759e-07 30.0003 	-6.12609e-06 	-4.01357e-07 30.0003 	-6.12609e-06 	-4.01357e-07 30.0003 	-6.12609e-06 	-4.01356e-07 30.0003 	-6.12609e-06 	-4.01356e-07 30.0001 	-1.82961e-07 	-8.53079e-07 30.0003 	-6.14949e-06 	-4.40351e-07 30.0003 	-6.14949e-06 	-4.40351e-07 30.0003 	-6.14949e-06 	-4.4035e-07 30.0003 	-6.14949e-06 	-4.4035e-07 30.0001 	-1.83499e-07 	-9.00288e-07 30.0003 	-6.17215e-06 	-4.77969e-07 30.0003 	-6.17215e-06 	-4.77969e-07 30.0003 	-6.17215e-06 	-4.77969e-07 30.0003 	-6.17215e-06 	-4.77969e-07 30.0001 	-2.90971e-06 	-7.31434e-07 30.0003 	-6.19395e-06 	-5.14183e-07 30.0003 	-6.19395e-06 	-5.14182e-07 30.0003 	-6.19395e-06 	-5.14182e-07 30.0003 	-6.19395e-06 	-5.14182e-07 30.0001 	-2.94757e-06 	-7.75562e-07 30.0003 	-6.21479e-06 	-5.4881e-07 30.0003 	-6.21479e-06 	-5.4881e-07 30.0003 	-6.21478e-06 	-5.4881e-07 30.0003 	-6.21478e-06 	-5.4881e-07 30.0001 	-1.84982e-07 	-1.0295e-06 30.0003 	-6.23483e-06 	-5.82031e-07 30.0003 	-6.23483e-06 	-5.82031e-07 30.0003 	-6.23483e-06 	-5.82031e-07 30.0003 	-6.23483e-06 	-5.82031e-07 30.0001 	-3.02053e-06 	-8.5745e-07 30.0003 	-6.25411e-06 	-6.1387e-07 30.0003 	-6.25411e-06 	-6.1387e-07 30.0003 	-6.25411e-06 	-6.1387e-07 30.0003 	-6.25411e-06 	-6.1387e-07 30.0001 	-3.05562e-06 	-8.95456e-07 30.0003 	-6.27259e-06 	-6.44392e-07 30.0003 	-6.27259e-06 	-6.44392e-07 30.0003 	-6.27259e-06 	-6.44392e-07 30.0003 	-6.27259e-06 	-6.44392e-07 30.0001 	-1.86375e-07 	-1.14082e-06 30.0003 	-6.29022e-06 	-6.73596e-07 30.0003 	-6.29022e-06 	-6.73596e-07 30.0003 	-6.29022e-06 	-6.73595e-07 30.0003 	-6.29021e-06 	-6.73595e-07 30.0001 	-1.86803e-07 	-1.17458e-06 30.0003 	-6.30724e-06 	-7.01414e-07 30.0003 	-6.30723e-06 	-7.01414e-07 30.0003 	-6.30723e-06 	-7.01414e-07 30.0003 	-6.30723e-06 	-7.01414e-07 30.0001 	-1.87249e-07 	-1.20666e-06 30.0003 	-6.32332e-06 	-7.27844e-07 30.0003 	-6.32332e-06 	-7.27844e-07 30.0003 	-6.32332e-06 	-7.27844e-07 30.0003 	-6.32332e-06 	-7.27844e-07 30.0001 	-3.18703e-06 	-1.03098e-06 30.0003 	-6.33858e-06 	-7.52956e-07 30.0003 	-6.33858e-06 	-7.52955e-07 30.0003 	-6.33858e-06 	-7.52955e-07 30.0003 	-6.33858e-06 	-7.52955e-07 30.0001 	-1.88108e-07 	-1.26595e-06 30.0003 	-6.35309e-06 	-7.76924e-07 30.0003 	-6.35309e-06 	-7.76924e-07 30.0003 	-6.35309e-06 	-7.76924e-07 30.0003 	-6.35308e-06 	-7.76923e-07 30.0001 	-1.88512e-07 	-1.2933e-06 30.0003 	-6.3669e-06 	-7.99795e-07 30.0003 	-6.3669e-06 	-7.99794e-07 30.0003 	-6.3669e-06 	-7.99794e-07 30.0003 	-6.36689e-06 	-7.99794e-07 30.0001 	-3.27642e-06 	-1.11602e-06 30.0003 	-6.37999e-06 	-8.21521e-07 30.0003 	-6.37999e-06 	-8.2152e-07 30.0003 	-6.37998e-06 	-8.2152e-07 30.0003 	-6.37998e-06 	-8.2152e-07 30.0001 	-3.30453e-06 	-1.1415e-06 30.0003 	-6.39223e-06 	-8.41959e-07 30.0003 	-6.39223e-06 	-8.41959e-07 30.0003 	-6.39223e-06 	-8.41959e-07 30.0003 	-6.39223e-06 	-8.41958e-07 30.0001 	-1.89698e-07 	-1.36685e-06 30.0003 	-6.40385e-06 	-8.61349e-07 30.0003 	-6.40385e-06 	-8.61349e-07 30.0003 	-6.40385e-06 	-8.61349e-07 30.0003 	-6.40385e-06 	-8.61348e-07 30.0001 	-1.9008e-07 	-1.38872e-06 30.0003 	-6.4148e-06 	-8.79786e-07 30.0003 	-6.4148e-06 	-8.79786e-07 30.0003 	-6.41479e-06 	-8.79786e-07 30.0003 	-6.41479e-06 	-8.79785e-07 30.0001 	-1.90459e-07 	-1.40937e-06 30.0003 	-6.42505e-06 	-8.97268e-07 30.0003 	-6.42504e-06 	-8.97268e-07 30.0003 	-6.42504e-06 	-8.97268e-07 30.0003 	-6.42504e-06 	-8.97268e-07 30.0001 	-3.40882e-06 	-1.2305e-06 30.0003 	-6.43463e-06 	-9.13853e-07 30.0003 	-6.43463e-06 	-9.13853e-07 30.0003 	-6.43462e-06 	-9.13853e-07 30.0003 	-6.43462e-06 	-9.13852e-07 30.0001 	-3.43295e-06 	-1.24983e-06 30.0003 	-6.44346e-06 	-9.29542e-07 30.0003 	-6.44346e-06 	-9.29542e-07 30.0003 	-6.44346e-06 	-9.29542e-07 30.0003 	-6.44346e-06 	-9.29541e-07 30.0001 	-1.91517e-07 	-1.46454e-06 30.0003 	-6.4517e-06 	-9.44398e-07 30.0003 	-6.4517e-06 	-9.44398e-07 30.0003 	-6.4517e-06 	-9.44397e-07 30.0003 	-6.4517e-06 	-9.44397e-07 30.0001 	-3.47899e-06 	-1.28532e-06 30.0003 	-6.45938e-06 	-9.58401e-07 30.0003 	-6.45938e-06 	-9.58401e-07 30.0003 	-6.45938e-06 	-9.584e-07 30.0003 	-6.45938e-06 	-9.584e-07 30.0001 	-3.50104e-06 	-1.30158e-06 30.0003 	-6.46646e-06 	-9.71691e-07 30.0003 	-6.46646e-06 	-9.71691e-07 30.0003 	-6.46646e-06 	-9.71691e-07 30.0003 	-6.46645e-06 	-9.7169e-07 30.0001 	-1.92518e-