# vtk DataFile Version 2.0
track0
ASCII
DATASET POLYDATA
POINTS 15780 float
-1.001 -0.05 0.0011
-1.0008 -0.05 0.0011
-1.0006 -0.05 0.0011
-1.0004 -0.05 0.0011
-1.0002 -0.05 0.0011
-1 -0.05 0.0011
-0.9875 -0.05 0.0011
-0.975 -0.05 0.0011
-0.9625 -0.05 0.0011
-0.95 -0.05 0.0011
-0.9375 -0.05 0.00109999
-0.925 -0.05 0.00109999
-0.9125 -0.05 0.00109999
-0.9 -0.05 0.00109999
-0.8875 -0.05 0.00109999
-0.875 -0.05 0.00109999
-0.8625 -0.05 0.00109999
-0.85 -0.05 0.00109999
-0.8375 -0.05 0.00109998
-0.825 -0.0500001 0.00109998
-0.8125 -0.0500001 0.00109998
-0.8 -0.0500001 0.00109998
-0.7875 -0.0500001 0.00109998
-0.775 -0.0500001 0.00109998
-0.7625 -0.0500001 0.00109998
-0.75 -0.0500001 0.00109998
-0.7375 -0.0500001 0.00109997
-0.725 -0.0500001 0.00109997
-0.7125 -0.0500001 0.00109997
-0.7 -0.0500001 0.00109997
-0.6875 -0.0500001 0.00109997
-0.675 -0.0500001 0.00109997
-0.6625 -0.0500001 0.00109997
-0.65 -0.0500001 0.00109996
-0.6375 -0.0500001 0.00109996
-0.625 -0.0500001 0.00109996
-0.6125 -0.0500001 0.00109996
-0.6 -0.0500001 0.00109996
-0.5875 -0.0500001 0.00109996
-0.575 -0.0500001 0.00109996
-0.5625 -0.0500001 0.00109996
-0.55 -0.0500001 0.00109995
-0.5375 -0.0500001 0.00109995
-0.525 -0.0500001 0.00109995
-0.5125 -0.0500001 0.00109995
-0.5 -0.0500001 0.00109995
-0.4875 -0.0500001 0.00109995
-0.475 -0.0500001 0.00109995
-0.4625 -0.0500001 0.00109994
-0.45 -0.0500002 0.00109994
-0.4375 -0.0500002 0.00109994
-0.425 -0.0500002 0.00109994
-0.4125 -0.0500002 0.00109994
-0.4 -0.0500002 0.00109994
-0.3875 -0.0500002 0.00109994
-0.375 -0.0500002 0.00109994
-0.3625 -0.0500002 0.00109993
-0.35 -0.0500002 0.00109993
-0.3375 -0.0500002 0.00109993
-0.325 -0.0500002 0.00109993
-0.3125 -0.0500002 0.00109993
-0.3 -0.0500002 0.00109993
-0.2875 -0.0500002 0.00109993
-0.275 -0.0500002 0.00109993
-0.2625 -0.0500002 0.00109992
-0.25 -0.0500002 0.00109992
-0.2375 -0.0500002 0.00109992
-0.225 -0.0500002 0.00109992
-0.2125 -0.0500002 0.00109992
-0.2 -0.0500002 0.00109992
-0.1875 -0.0500002 0.00109992
-0.175 -0.0500002 0.00109992
-0.1625 -0.0500002 0.00109991
-0.15 -0.0500002 0.00109991
-0.1375 -0.0500002 0.00109991
-0.125 -0.0500002 0.00109991
-0.1125 -0.0500002 0.00109991
-0.1 -0.0500002 0.00109991
-0.0875 -0.0500002 0.00109991
-0.075 -0.0500002 0.00109991
-0.0625 -0.0500002 0.00109991
-0.05 -0.0500003 0.00109991
-0.0375 -0.0500003 0.0010999
-0.025 -0.0500003 0.0010999
-0.0125 -0.0500003 0.0010999
2.10607e-13 -0.0500003 0.0010999
0.0125 -0.0500003 0.0010999
0.025 -0.0500003 0.0010999
0.0375 -0.0500003 0.0010999
0.05 -0.0500003 0.0010999
0.0625 -0.0500003 0.0010999
0.075 -0.0500003 0.0010999
0.0875 -0.0500003 0.0010999
0.1 -0.0500003 0.00109989
0.1125 -0.0500003 0.00109989
0.125 -0.0500003 0.00109989
0.1375 -0.0500003 0.00109989
0.15 -0.0500003 0.00109989
0.1625 -0.0500003 0.00109989
0.175 -0.0500003 0.00109989
0.1875 -0.0500003 0.00109989
0.2 -0.0500003 0.00109989
0.2125 -0.0500003 0.00109989
0.225 -0.0500003 0.00109989
0.2375 -0.0500003 0.00109989
0.25 -0.0500003 0.00109989
0.2625 -0.0500003 0.00109988
0.275 -0.0500003 0.00109988
0.2875 -0.0500003 0.00109988
0.3 -0.0500003 0.00109988
0.3125 -0.0500003 0.00109988
0.325 -0.0500003 0.00109988
0.3375 -0.0500003 0.00109988
0.35 -0.0500003 0.00109988
0.3625 -0.0500003 0.00109988
0.375 -0.0500003 0.00109988
0.3875 -0.0500003 0.00109988
0.4 -0.0500004 0.00109988
0.4125 -0.0500004 0.00109988
0.425 -0.0500004 0.00109988
0.4375 -0.0500004 0.00109988
0.45 -0.0500004 0.00109988
0.4625 -0.0500004 0.00109988
0.475 -0.0500004 0.00109988
0.4875 -0.0500004 0.00109988
0.5 -0.0500004 0.00109988
0.5125 -0.0500004 0.00109988
0.525 -0.0500004 0.00109988
0.5375 -0.0500004 0.00109988
0.55 -0.0500004 0.00109988
0.5625 -0.0500004 0.00109988
0.575 -0.0500004 0.00109987
0.5875 -0.0500004 0.00109987
0.6 -0.0500004 0.00109987
0.6125 -0.0500004 0.00109987
0.625 -0.0500004 0.00109987
0.6375 -0.0500004 0.00109987
0.65 -0.0500004 0.00109987
0.6625 -0.0500004 0.00109987
0.675 -0.0500004 0.00109987
0.6875 -0.0500004 0.00109987
0.7 -0.0500004 0.00109987
0.7125 -0.0500004 0.00109987
0.725 -0.0500004 0.00109987
0.7375 -0.0500004 0.00109987
0.75 -0.0500004 0.00109987
0.7625 -0.0500004 0.00109987
0.775 -0.0500004 0.00109987
0.7875 -0.0500004 0.00109987
0.8 -0.0500004 0.00109987
0.8125 -0.0500004 0.00109987
0.825 -0.0500004 0.00109987
0.8375 -0.0500004 0.00109987
0.85 -0.0500004 0.00109987
0.8625 -0.0500004 0.00109987
0.875 -0.0500004 0.00109987
0.8875 -0.0500004 0.00109987
0.9 -0.0500004 0.00109987
0.9125 -0.0500005 0.00109988
0.925 -0.0500005 0.00109988
0.9375 -0.0500005 0.00109988
0.95 -0.0500005 0.00109988
0.9625 -0.0500005 0.00109988
0.975 -0.0500005 0.00109988
0.9875 -0.0500005 0.00109988
1 -0.0500005 0.00109988
1.0125 -0.0500005 0.00109988
1.025 -0.0500005 0.00109988
1.0375 -0.0500005 0.00109988
1.05 -0.0500005 0.00109988
1.0625 -0.0500005 0.00109988
1.075 -0.0500005 0.00109988
1.0875 -0.0500005 0.00109988
1.1 -0.0500005 0.00109988
1.1125 -0.0500005 0.00109988
1.125 -0.0500005 0.00109988
1.1375 -0.0500005 0.00109988
1.15 -0.0500005 0.00109988
1.1625 -0.0500005 0.00109988
1.175 -0.0500005 0.00109988
1.1875 -0.0500005 0.00109988
1.2 -0.0500005 0.00109988
1.2125 -0.0500005 0.00109988
1.225 -0.0500005 0.00109988
1.2375 -0.0500005 0.00109989
1.25 -0.0500005 0.00109989
1.2625 -0.0500005 0.00109989
1.275 -0.0500005 0.00109989
1.2875 -0.0500005 0.00109989
1.3 -0.0500005 0.00109989
1.3125 -0.0500005 0.00109989
1.325 -0.0500005 0.00109989
1.3375 -0.0500005 0.00109989
1.35 -0.0500005 0.00109989
1.3625 -0.0500005 0.00109989
1.375 -0.0500005 0.00109989
1.3875 -0.0500005 0.00109989
1.4 -0.0500005 0.00109989
1.4125 -0.0500005 0.00109989
1.425 -0.0500005 0.00109989
1.4375 -0.0500005 0.0010999
1.45 -0.0500005 0.0010999
1.4625 -0.0500005 0.0010999
1.475 -0.0500005 0.0010999
1.4875 -0.0500005 0.0010999
1.5 -0.0500006 0.0010999
1.5125 -0.0500006 0.0010999
1.525 -0.0500006 0.0010999
1.5375 -0.0500006 0.0010999
1.55 -0.0500006 0.0010999
1.5625 -0.0500006 0.0010999
1.575 -0.0500006 0.0010999
1.5875 -0.0500006 0.0010999
1.6 -0.0500006 0.0010999
1.6125 -0.0500006 0.00109991
1.625 -0.0500006 0.00109991
1.6375 -0.0500006 0.00109991
1.65 -0.0500006 0.00109991
1.6625 -0.0500006 0.00109991
1.675 -0.0500006 0.00109991
1.6875 -0.0500006 0.00109991
1.7 -0.0500006 0.00109991
1.7125 -0.0500006 0.00109991
1.725 -0.0500006 0.00109991
1.7375 -0.0500006 0.00109991
1.75 -0.0500006 0.00109991
1.7625 -0.0500006 0.00109992
1.775 -0.0500006 0.00109992
1.7875 -0.0500006 0.00109992
1.8 -0.0500006 0.00109992
1.8125 -0.0500006 0.00109992
1.825 -0.0500006 0.00109992
1.8375 -0.0500006 0.00109992
1.85 -0.0500006 0.00109992
1.8625 -0.0500006 0.00109992
1.875 -0.0500006 0.00109992
1.8875 -0.0500006 0.00109992
1.9 -0.0500006 0.00109992
1.9125 -0.0500006 0.00109993
1.925 -0.0500006 0.00109993
1.9375 -0.0500006 0.00109993
1.95 -0.0500006 0.00109993
1.9625 -0.0500006 0.00109993
1.975 -0.0500006 0.00109993
1.9875 -0.0500006 0.00109993
2 -0.0500006 0.00109993
2.0125 -0.0500006 0.00109993
2.025 -0.0500006 0.00109993
2.0375 -0.0500006 0.00109993
2.05 -0.0500006 0.00109993
2.0625 -0.0500006 0.00109994
2.075 -0.0500006 0.00109994
2.0875 -0.0500006 0.00109994
2.1 -0.0500006 0.00109994
2.1125 -0.0500006 0.00109994
2.125 -0.0500006 0.00109994
2.1375 -0.0500006 0.00109994
2.15 -0.0500006 0.00109994
2.1625 -0.0500006 0.00109994
2.175 -0.0500007 0.00109994
2.1875 -0.0500007 0.00109994
2.2 -0.0500007 0.00109994
2.2125 -0.0500007 0.00109994
2.225 -0.0500007 0.00109995
2.2375 -0.0500007 0.00109995
2.25 -0.0500007 0.00109995
2.2625 -0.0500007 0.00109995
2.275 -0.0500007 0.00109995
2.2875 -0.0500007 0.00109995
2.3 -0.0500007 0.00109995
2.3125 -0.0500007 0.00109995
2.325 -0.0500007 0.00109995
2.3375 -0.0500007 0.00109995
2.35 -0.0500007 0.00109995
2.3625 -0.0500007 0.00109995
2.375 -0.0500007 0.00109995
2.3875 -0.0500007 0.00109996
2.4 -0.0500007 0.00109996
2.4125 -0.0500007 0.00109996
2.425 -0.0500007 0.00109996
2.4375 -0.0500007 0.00109996
2.45 -0.0500007 0.00109996
2.4625 -0.0500007 0.00109996
2.475 -0.0500007 0.00109996
2.4875 -0.0500007 0.00109996
2.5 -0.0500007 0.00109996
2.5125 -0.0500007 0.00109996
2.525 -0.0500007 0.00109996
2.5375 -0.0500007 0.00109996
2.55 -0.0500007 0.00109996
2.5625 -0.0500007 0.00109997
2.575 -0.0500007 0.00109997
2.5875 -0.0500007 0.00109997
2.6 -0.0500007 0.00109997
2.6125 -0.0500007 0.00109997
2.625 -0.0500007 0.00109997
2.6375 -0.0500007 0.00109997
2.65 -0.0500007 0.00109997
2.6625 -0.0500007 0.00109997
2.675 -0.0500007 0.00109997
2.6875 -0.0500007 0.00109997
2.7 -0.0500007 0.00109997
2.7125 -0.0500007 0.00109997
2.725 -0.0500007 0.00109997
2.7375 -0.0500007 0.00109997
2.75 -0.0500007 0.00109997
2.7625 -0.0500007 0.00109998
2.775 -0.0500007 0.00109998
2.7875 -0.0500007 0.00109998
2.8 -0.0500007 0.00109998
2.8125 -0.0500007 0.00109998
2.825 -0.0500007 0.00109998
2.8375 -0.0500007 0.00109998
2.85 -0.0500007 0.00109998
2.8625 -0.0500008 0.00109998
2.875 -0.0500008 0.00109998
2.8875 -0.0500008 0.00109998
2.9 -0.0500008 0.00109998
2.9125 -0.0500008 0.00109998
2.925 -0.0500008 0.00109998
2.9375 -0.0500008 0.00109998
2.95 -0.0500008 0.00109998
2.9625 -0.0500008 0.00109998
2.975 -0.0500008 0.00109998
2.9875 -0.0500008 0.00109998
3 -0.0500008 0.00109998
3.0125 -0.0500008 0.00109999
3.025 -0.0500008 0.00109999
3.0375 -0.0500008 0.00109999
3.05 -0.0500008 0.00109999
3.0625 -0.0500008 0.00109999
3.075 -0.0500008 0.00109999
3.0875 -0.0500008 0.00109999
3.1 -0.0500008 0.00109999
3.1125 -0.0500008 0.00109999
3.125 -0.0500008 0.00109999
3.1375 -0.0500008 0.00109999
3.15 -0.0500008 0.00109999
3.1625 -0.0500008 0.00109999
3.175 -0.0500008 0.00109999
3.1875 -0.0500008 0.00109999
3.2 -0.0500008 0.00109999
3.2125 -0.0500008 0.00109999
3.225 -0.0500008 0.00109999
3.2375 -0.0500008 0.00109999
3.25 -0.0500008 0.00109999
3.2625 -0.0500008 0.00109999
3.275 -0.0500008 0.00109999
3.2875 -0.0500008 0.00109999
3.3 -0.0500008 0.00109999
3.3125 -0.0500008 0.00109999
3.325 -0.0500008 0.00109999
3.3375 -0.0500008 0.00109999
3.35 -0.0500008 0.0011
3.3625 -0.0500008 0.0011
[...]
POINT_DATA 15780
 FIELD attributes 2
p 1 15780 float
-0.0310982 -0.0311143 -0.0311303 -0.0311463 -0.0311624 -0.0311784 -0.0321099 -0.0330336 -0.0339574 -0.0348811 -0.0359015 -0.0369654 -0.0380318 -0.0390981 -0.0401645 -0.0411841 -0.0421676 -0.0431324 -0.0440972 -0.045062 -0.0459751 -0.046873 -0.0477755 -0.048678 -0.0495806 -0.0504773 -0.0513779 -0.0522794 -0.0531809 -0.0540824 -0.0549833 -0.0558908 -0.0567987 -0.0577066 -0.0586146 -0.0595221 -0.0604217 -0.0613191 -0.0622166 -0.0631141 -0.0640087 -0.0648878 -0.0657649 -0.0666421 -0.0675192 -0.0683943 -0.0692517 -0.070107 -0.0709623 -0.0718176 -0.0726709 -0.0735056 -0.0743376 -0.0751697 -0.0760017 -0.0768314 -0.0776397 -0.0784448 -0.07925 -0.0800552 -0.0808575 -0.0816356 -0.0824099 -0.0831841 -0.0839584 -0.0847291 -0.0854732 -0.0862132 -0.0869531 -0.0876931 -0.0884291 -0.0891365 -0.089839 -0.0905416 -0.0912441 -0.0919421 -0.0926094 -0.0932715 -0.0939337 -0.0945959 -0.095253 -0.0958775 -0.0964963 -0.0971152 -0.097734 -0.0983473 -0.0989263 -0.0994995 -0.100073 -0.100646 -0.101213 -0.101746 -0.102272 -0.102798 -0.103324 -0.103845 -0.104329 -0.104807 -0.105284 -0.105762 -0.106233 -0.106668 -0.107094 -0.107521 -0.107948 -0.108367 -0.108747 -0.10912 -0.109493 -0.109866 -0.110231 -0.110556 -0.110873 -0.11119 -0.111507 -0.111816 -0.112084 -0.112345 -0.112605 -0.112865 -0.113117 -0.113328 -0.11353 -0.113733 -0.113936 -0.11413 -0.114283 -0.114427 -0.114571 -0.114715 -0.114851 -0.114944 -0.115029 -0.115114 -0.1152 -0.115277 -0.115314 -0.115342 -0.115371 -0.1154 -0.115421 -0.115403 -0.115378 -0.115352 -0.115327 -0.115294 -0.115224 -0.115146 -0.115068 -0.11499 -0.114905 -0.114783 -0.114653 -0.114524 -0.114394 -0.114257 -0.114083 -0.113902 -0.113721 -0.11354 -0.113351 -0.113128 -0.112897 -0.112667 -0.112436 -0.112199 -0.111928 -0.111652 -0.111375 -0.111098 -0.110814 -0.1105 -0.110179 -0.109859 -0.109538 -0.109211 -0.108854 -0.108492 -0.108129 -0.107767 -0.107398 -0.107001 -0.106599 -0.106198 -0.105796 -0.105388 -0.104955 -0.104516 -0.104078 -0.10364 -0.103196 -0.10273 -0.102259 -0.101789 -0.101318 -0.100843 -0.100349 -0.099851 -0.0993529 -0.0988549 -0.0983527 -0.0978338 -0.0973114 -0.0967889 -0.0962665 -0.0957402 -0.0951993 -0.0946549 -0.0941105 -0.0935661 -0.0930181 -0.0924571 -0.0918933 -0.0913296 -0.0907658 -0.0901988 -0.0896212 -0.089041 -0.0884608 -0.0878806 -0.0872975 -0.086706 -0.0861126 -0.0855193 -0.0849259 -0.0843302 -0.0837283 -0.0831248 -0.0825213 -0.0819178 -0.0813122 -0.0807025 -0.0800917 -0.0794809 -0.0788701 -0.0782578 -0.0776434 -0.077028 -0.0764126 -0.0757972 -0.0751805 -0.0745635 -0.0739461 -0.0733287 -0.0727113 -0.0720931 -0.0714764 -0.0708594 -0.0702424 -0.0696254 -0.0690079 -0.0683933 -0.067779 -0.0671646 -0.0665503 -0.0659359 -0.0653258 -0.0647162 -0.0641065 -0.0634968 -0.0628871 -0.0622832 -0.06168 -0.0610768 -0.0604736 -0.0598709 -0.059275 -0.0586799 -0.0580849 -0.0574899 -0.0568955 -0.056309 -0.0557238 -0.0551385 -0.0545532 -0.053969 -0.0533936 -0.0528194 -0.0522453 -0.0516712 -0.0510982 -0.0505348 -0.049973 -0.0494112 -0.0488495 -0.0482891 -0.0477391 -0.0471907 -0.0466424 -0.046094 -0.0455472 -0.0450112 -0.0444772 -0.0439431 -0.0434091 -0.0428768 -0.0423559 -0.041837 -0.0413181 -0.0407991 -0.040282 -0.0397766 -0.0392734 -0.0387702 -0.038267 -0.0377658 -0.0372767 -0.0367897 -0.0363028 -0.0358158 -0.0353309 -0.0348582 -0.0343879 -0.0339175 -0.0334472 -0.032979 -0.0325233 -0.0320698 -0.0316163 -0.0311629 -0.0307116 -0.0302728 -0.0298364 -0.0294 -0.0289635 -0.0285295 -0.0281077 -0.0276884 -0.0272691 -0.0268498 -0.0264328 -0.0260281 -0.0256259 -0.0252237 -0.0248214 -0.0244216 -0.0240341 -0.023649 -0.0232639 -0.0228788 -0.022496 -0.0221256 -0.0217578 -0.0213899 -0.021022 -0.0206566 -0.0203033 -0.0199526 -0.0196019 -0.0192511 -0.0189027 -0.0185661 -0.018232 -0.017898 -0.017564 -0.0172324 -0.0169121 -0.0165942 -0.0162763 -0.0159584 -0.015643 -0.0153384 -0.0150361 -0.0147337 -0.0144314 -0.0141316 -0.0138423 -0.0135552 -0.0132681 -0.0129811 -0.0126966 -0.0124223 -0.0121502 -0.0118781 -0.011606 -0.0113362 -0.0110765 -0.010819 -0.0105616 -0.0103041 -0.0100489 -0.00980364 -0.00956048 -0.00931733 -0.00907417 -0.00883322 -0.00860174 -0.00837231 -0.00814288 -0.00791344 -0.00768609 -0.00746774 -0.00725149 -0.00703524 -0.006819 -0.00660483 -0.0063993 -0.0061958 -0.0059923 -0.00578881 -0.00558731 -0.00539408 -0.00520297 -0.00501186 -0.00482075 -0.00463173 -0.00445069 -0.00427175 -0.00409282 -0.00391389 -0.003737 -0.00356777 -0.00340059 -0.0032334 -0.00306622 -0.00290109 -0.00274304 -0.00258686 -0.00243069 -0.00227451 -0.00212037 -0.00197286 -0.00182688 -0.0016809 -0.00153491 -0.00139071 -0.00125275 -0.00111639 -0.000980034 -0.000843675 -0.00070909 -0.000580416 -0.00045335 -0.000326285 -0.000199219 -7.37993e-05 4.58689e-05 0.000163922 0.000281974 0.000400027 0.000516462 0.000627449 0.00073685 0.000846251 0.000955652 0.00106343 0.00116617 0.00126736 0.00136855 0.00146974 0.00156934 0.00166423 0.00175766 0.0018511 0.00194453 0.00203645 0.00212399 0.00221009 0.0022962 0.00238231 0.00246693 0.00254744 0.00262661 0.00270578 0.00278496 0.00286273 0.00293667 0.00300929 0.00308192 0.00315454 0.00322578 0.00329347 0.00335992 0.00342638 0.00349283 0.00355798 0.00361983 0.00368047 0.0037411 0.00380174 0.0038611 0.00391742 0.0039726 0.00402778 0.00408295 0.00413692 0.00418812 0.00423818 0.00428823 0.00433829 0.00438714 0.00443345 0.00447868 0.00452391 0.00456915 0.00461325 0.00465501 0.00469572 0.00473642 0.00477713 0.00481672 0.00485417 0.00489064 0.0049271 0.00496357 0.00499899 0.00503248 0.00506499 0.0050975 0.00513001 0.00516147 0.00519121 0.00522002 0.00524883 0.00527764 0.00530549 0.00533176 0.00535713 0.00538249 0.00540786 0.00543226 0.00545526 0.00547742 0.00549958 0.00552174 0.00554299 0.00556303 0.00558221 0.0056014 0.00562059 0.00563887 0.00565609 0.00567253 0.00568896 0.0057054 0.00572099 0.00573567 0.00574956 0.00576345 0.00577734 0.0057904 0.00580266 0.0058142 0.00582575 0.00583729 0.00584806 0.00585816 0.00586754 0.00587691 0.00588629 0.00589489 0.00590297 0.00591036 0.00591775 0.00592514 0.00593182 0.00593807 0.00594364 0.00594922 0.00595479 0.00595965 0.00596419 0.00596811 0.00597203 0.00597594 0.00597919 0.00598223 0.00598464 0.00598705 0.00598946 0.0059912 0.00599284 0.00599388 0.00599492 0.00599597 0.00599638 0.00599678 0.00599658 0.00599638 0.00599618 0.00599536 0.00599459 0.00599329 0.00599198 0.00599067 0.00598878 0.00598705 0.00598476 0.00598246 0.00598017 0.0059773 0.00597465 0.00597148 0.00596831 0.00596514 0.00596142 0.00595799 0.00595405 0.00595011 0.00594616 0.00594167 0.00593754 0.00593293 0.00592832 0.00592371 0.00591859 0.0059139 0.00590873 0.00590355 0.00589838 0.00589269 0.0058875 0.00588185 0.00587621 0.00587056 0.00586443 0.00585886 0.00585283 0.0058468 0.00584076 0.00583425 0.00582836 0.00582203 0.0058157 0.00580937 0.00580258 0.00579647 0.00578992 0.00578337 0.00577683 0.00576982 0.00576355 0.00575686 0.00575017 0.00574348 0.00573636 0.00573002 0.00572327 0.00571651 0.00570975 0.00570257 0.00569622 0.00568947 0.00568272 0.00567596 0.0056688 0.00566252 0.00565584 0.00564916 0.00564247 0.00563539 0.00562924 0.00562269 0.00561615 0.0056096 0.00560266 0.00559671 0.00559036 0.00558402 0.00557767 0.00557094 0.00556524 0.00555915 0.00555306 0.00554697 0.0055405 0.00553511 0.00552933 0.00552356 0.00551778 0.00551163 0.00550661 0.00550119 0.00549578 0.00549037 0.00548458 0.00547994 0.00547493 0.00546991 0.0054649 0.00545952 0.00545533 0.00545074 0.00544615 0.00544156 0.0054366 0.00543281 0.00542865 0.00542448 0.00542031 0.00541577 0.00541238 0.00540856 0.00540475 0.00540094 0.00539673 0.00539353 0.00538989 0.00538624 0.0053826 0.00537854 0.00537512 0.00537121 0.00536729 0.00536337 0.00535897 0.00535406 0.00534834 0.00534261 0.00533688 0.00533037 0.00532159 0.00531238 0.00530317 0.00529396 0.00528426 0.00525813 0.00522648 0.00519483 0.00516318 0.00512664 0.00511515 0.0051178 0.00512045 0.00512311 0.00514872 0.00523232 0.00530836 0.00538772 0.00545068 0.0054963 0.00548927 0.00548543 0.0054816 0.00547778 0.00547625 0.00550312 0.0055308 0.00555848 0.00557815 0.0055991 0.00561303 0.00563187 0.00565075 0.00566962 0.00568395 0.00574683 0.00581184 0.00587684 0.00594185 0.00599835 0.00608978 0.00616588 0.00624198 0.00631809 0.00632323 0.00630859 0.00628921 0.00626983 0.00625044 0.00624056 0.00603971 0.00581814 0.00559658 0.00537502 0.00504764 0.00456766 0.00407378 0.00357989 0.00308601 0.00262192 0.00235216 0.00207486 0.00179756 0.00152025 0.00127292 0.00117432 0.00106929 0.000964268 0.000859243 0.000773597 0.000667683 0.000556211 0.000444739 0.000333266 0.000255279
-0.0319476 -0.0319667 -0.0319858 -0.0320049 -0.032024 -0.0320431 -0.032744 -0.0336216 -0.0344043 -0.0351667 -0.036225 -0.0372617 -0.0382521 -0.0392545 -0.0403139 -0.0412979 -0.0422591 -0.0432251 -0.0441657 -0.0451009 -0.0460069 -0.0469049 -0.047811 -0.0487169 -0.0496221 -0.0505271 -0.0514188 -0.0523225 -0.0532312 -0.0541409 -0.0550613 -0.0559664 -0.0568787 -0.0577904 -0.0586999 -0.059615 -0.0605163 -0.0614146 -0.0623142 -0.0632141 -0.0641103 -0.0649913 -0.0658713 -0.0667509 -0.0676285 -0.0685044 -0.0693626 -0.0702182 -0.0710764 -0.0719352 -0.0727917 -0.0736257 -0.0744611 -0.075296 -0.0761283 -0.076962 -0.0777692 -0.0785746 -0.0793823 -0.0801906 -0.0809973 -0.081773 -0.0825502 -0.0833268 -0.0841012 -0.0848772 -0.085618 -0.086358 -0.0871003 -0.087843 -0.0885854 -0.0892878 -0.089993 -0.0906977 -0.0914003 -0.0921057 -0.092767 -0.0934292 -0.0940934 -0.094758 -0.0954238 -0.0960407 -0.0966617 -0.0972824 -0.0979012 -0.0985239 -0.099093 -0.099666 -0.100241 -0.100816 -0.101395 -0.101914 -0.102442 -0.102969 -0.103495 -0.10403 -0.104502 -0.10498 -0.105458 -0.105936 -0.106421 -0.106844 -0.107271 -0.107697 -0.108124 -0.108555 -0.108925 -0.109298 -0.109671 -0.110043 -0.110418 -0.110733 -0.11105 -0.111366 -0.111683 -0.112001 -0.112261 -0.112521 -0.11278 -0.11304 -0.1133 -0.113502 -0.113704 -0.113906 -0.114109 -0.114311 -0.114455 -0.114599 -0.114743 -0.114886 -0.115029 -0.115112 -0.115197 -0.115283 -0.115368 -0.115455 -0.11548 -0.115508 -0.115537 -0.115566 -0.115599 -0.115567 -0.115541 -0.115515 -0.115489 -0.11547 -0.115385 -0.115307 -0.115228 -0.115148 -0.115075 -0.114939 -0.114806 -0.114673 -0.114543 -0.114416 -0.114229 -0.114048 -0.113863 -0.113679 -0.113499 -0.113263 -0.113029 -0.112796 -0.112565 -0.112335 -0.112053 -0.111776 -0.111496 -0.111216 -0.110939 -0.110615 -0.11029 -0.109966 -0.109645 -0.109324 -0.108959 -0.108597 -0.108232 -0.107866 -0.107503 -0.107099 -0.106695 -0.106291 -0.10589 -0.105486 -0.105046 -0.104607 -0.104167 -0.103727 -0.103289 -0.102812 -0.102339 -0.101867 -0.101395 -0.100927 -0.100422 -0.0999232 -0.0994221 -0.0989204 -0.0984254 -0.0978963 -0.09737 -0.0968444 -0.0963214 -0.0958012 -0.0952516 -0.0947068 -0.0941595 -0.0936116 -0.0930685 -0.0925 -0.0919329 -0.0913663 -0.0908022 -0.0902391 -0.0896545 -0.089074 -0.0884911 -0.0879078 -0.0873283 -0.0867305 -0.0861341 -0.0855382 -0.0849445 -0.0843518 -0.0837441 -0.0831402 -0.0825343 -0.0819279 -0.0813251 -0.0807103 -0.0800967 -0.0794836 -0.0788725 -0.0782624 -0.0776432 -0.0770275 -0.07641 -0.075792 -0.0751773 -0.0745563 -0.0739365 -0.073317 -0.0726993 -0.0720826 -0.0714622 -0.070845 -0.0702262 -0.069607 -0.0689908 -0.0683733 -0.067757 -0.067141 -0.0665265 -0.0659129 -0.0653002 -0.0646904 -0.0640792 -0.0634677 -0.0628588 -0.0622527 -0.0616479 -0.0610433 -0.0604399 -0.0598375 -0.0592398 -0.0586447 -0.0580484 -0.0574519 -0.0568577 -0.05627 -0.0556834 -0.055097 -0.0545116 -0.0539272 -0.0533508 -0.0527766 -0.0522015 -0.0516262 -0.051053 -0.0504891 -0.0499263 -0.0493637 -0.0488018 -0.0482409 -0.0476906 -0.0471422 -0.0465931 -0.0460439 -0.0454964 -0.0449606 -0.0444258 -0.0438912 -0.0433571 -0.042824 -0.0423034 -0.0417845 -0.041265 -0.0407455 -0.0402275 -0.0397228 -0.0392191 -0.0387156 -0.0382123 -0.03771 -0.0372217 -0.0367348 -0.0362475 -0.0357602 -0.0352741 -0.0348026 -0.034332 -0.0338615 -0.0333911 -0.0329216 -0.0324671 -0.0320137 -0.0315601 -0.0311065 -0.030654 -0.0302166 -0.0297802 -0.0293437 -0.0289074 -0.0284719 -0.0280517 -0.0276324 -0.0272132 -0.026794 -0.0263756 -0.0259726 -0.0255705 -0.0251684 -0.0247662 -0.024365 -0.023979 -0.0235939 -0.0232089 -0.022824 -0.02244 -0.022071 -0.0217034 -0.0213357 -0.0209679 -0.0206012 -0.0202493 -0.0198986 -0.0195481 -0.0191976 -0.0188483 -0.0185129 -0.0181789 -0.017845 -0.0175111 -0.0171784 -0.0168598 -0.016542 -0.0162243 -0.0159066 -0.0155899 -0.0152874 -0.0149854 -0.0146834 -0.0143812 -0.0140795 -0.013793 -0.013506 -0.0132193 -0.0129327 -0.0126458 -0.0123744 -0.0121028 -0.0118311 -0.011559 -0.0112868 -0.0110298 -0.0107723 -0.0105153 -0.0102583 -0.0100008 -0.00975803 -0.00951534 -0.00927256 -0.00902945 -0.00878654 -0.00855756 -0.00832821 -0.00809926 -0.00787041 -0.00764106 -0.00742538 -0.00720986 -0.00699423 -0.0067781 -0.00656223 -0.00635914 -0.00615575 -0.00595289 -0.00575014 -0.0055471 -0.00535612 -0.00516575 -0.00497526 -0.00478423 -0.00459375 -0.0044146 -0.00423572 -0.00405725 -0.00387886 -0.00370084 -0.00353283 -0.00336589 -0.0031989 -0.00303176 -0.00286543 -0.00270881 -0.0025527 -0.00239669 -0.00224071 -0.00208538 -0.00193968 -0.0017941 -0.00164847 -0.00150261 -0.00135704 -0.00122162 -0.0010854 -0.00094955 -0.000813791 -0.000677269 -0.000551304 -0.000424903 -0.000298401 -0.000171448 -4.42065e-05 7.30651e-05 0.000191033 0.00030856 0.00042599 0.000544157 0.000652975 0.000761828 0.000870769 0.000980102 0.00108945 0.00119017 0.00129129 0.00139206 0.00149276 0.00159383 0.00168683 0.00177979 0.00187283 0.0019662 0.0020595 0.00214516 0.0022312 0.00231691 0.00240256 0.00248853 0.00256727 0.00264598 0.00272477 0.00280387 0.00288291 0.00295508 0.00302764 0.00309987 0.00317203 0.00324451 0.00331058 0.00337659 0.00344267 0.00350906 0.00357537 0.00363561 0.00369619 0.0037565 0.00381674 0.00387724 0.00393204 0.00398687 0.00404176 0.00409688 0.00415202 0.00420163 0.00425163 0.00430139 0.0043511 0.00440112 0.00444591 0.00449078 0.00453571 0.00458089 0.00462614 0.00466636 0.00470701 0.00474742 0.00478777 0.00482849 0.00486449 0.00490062 0.0049368 0.00497322 0.00500976 0.00504176 0.00507422 0.00510646 0.00513864 0.00517122 0.00519955 0.00522805 0.0052566 0.00528537 0.0053143 0.00533915 0.00536447 0.00538959 0.00541467 0.00544015 0.00546181 0.0054837 0.00550562 0.00552774 0.00555006 0.00556872 0.00558787 0.00560683 0.00562575 0.00564509 0.00566102 0.00567719 0.00569341 0.00570981 0.00572644 0.00573979 0.00575364 0.00576733 0.00578097 0.00579505 0.00580608 0.00581738 0.00582873 0.00584023 0.00585201 0.00586084 0.00587018 0.00587937 0.00588853 0.00589814 0.005905 0.00591218 0.00591939 0.00592675 0.00593442 0.00593943 0.00594498 0.00595038 0.00595575 0.0059616 0.00596498 0.00596871 0.00597247 0.00597635 0.00598058 0.00598242 0.0059848 0.00598706 0.0059893 0.00599202 0.00599251 0.00599338 0.00599428 0.0059953 0.00599668 0.0059959 0.00599568 0.00599534 0.00599498 0.00599513 0.00599324 0.00599178 0.00599035 0.00598902 0.00598811 0.00598524 0.00598292 0.00598051 0.00597807 0.00597615 0.00597242 0.0059691 0.00596581 0.00596262 0.00595984 0.00595532 0.00595136 0.0059473 0.00594322 0.00593966 0.00593449 0.00592976 0.00592504 0.00592041 0.00591622 0.00591046 0.00590527 0.0059 0.00589471 0.00588995 0.00588374 0.00587798 0.00587225 0.00586658 0.00586137 0.00585476 0.00584871 0.0058426 0.00583647 0.00583087 0.00582397 0.00581755 0.00581114 0.00580479 0.00579893 0.00579179 0.00578523 0.00577861 0.00577197 0.00576588 0.00575862 0.00575185 0.00574509 0.00573839 0.00573219 0.00572483 0.00571807 0.00571125 0.00570442 0.00569815 0.00569082 0.005684 0.00567719 0.00567043 0.00566418 0.00565691 0.00565022 0.00564348 0.00563674 0.00563057 0.00562345 0.00561685 0.00561026 0.00560371 0.00559769 0.00559075 0.00558439 0.00557801 0.00557162 0.00556581 0.00555914 0.00555301 0.00554689 0.0055408 0.00553527 0.00552889 0.00552311 0.00551732 0.00551151 0.0055063 0.0055003 0.00549488 0.00548945 0.00548404 0.00547922 0.0054736 0.00546858 0.00546358 0.00545857 0.00545417 0.005449 0.00544445 0.00543989 0.00543531 0.00543138 0.00542661 0.00542245 0.00541836 0.00541429 0.00541084 0.00540646 0.00540287 0.00539924 0.00539545 0.00539247 0.0053883 0.00538471 0.00538147 0.00537832 0.00537576 0.00537143 0.00536861 0.00536561 0.00536183 0.00535955 0.00535422 0.00534897 0.00534597 0.00534351 0.00534107 0.00533203 0.00533029 0.00532737 0.00531943 0.00531838 0.00530406 0.00527949 0.00527498 0.00527519 0.00526446 0.00522155 0.00523312 0.00524349 0.00524876 0.00531687 0.00541032 0.00547388 0.00553745 0.00557542 0.00552911 0.00550989 0.00550284 0.0054958 0.0054883 0.00549229 0.00550983 0.00552799 0.00554615 0.00555785 0.0055691 0.00557016 0.00557121 0.00557226 0.00557319 0.00557388 0.00559871 0.00562766 0.00565669 0.00568572 0.0056591 0.00569724 0.00575988 0.00582289 0.0058859 0.00596589 0.00618016 0.00626917 0.00635162 0.00642773 0.0063208 0.00635666 0.00633727 0.00632082 0.00631136 0.00625598 0.00620943 0.00598787 0.00576631 0.00553217 0.00503857 0.00469895 0.00420507 0.00371119 0.00321464 0.00259584 0.00241421 0.00213691 0.00185961 0.0015823 0.00124251 0.00122341 0.00111839 0.00101336 0.000908336 0.000751165 0.00071517 0.0006037 0.00049223 0.00038076 0.000206758